
     Program PWSCF v.7.4.1 starts on 15Oct2025 at 23: 2:17 

     This program is part of the open-source Quantum ESPRESSO suite
     for quantum simulation of materials; please cite
         "P. Giannozzi et al., J. Phys.:Condens. Matter 21 395502 (2009);
         "P. Giannozzi et al., J. Phys.:Condens. Matter 29 465901 (2017);
         "P. Giannozzi et al., J. Chem. Phys. 152 154105 (2020);
          URL http://www.quantum-espresso.org", 
     in publications or presentations arising from this work. More details at
     http://www.quantum-espresso.org/quote

     Parallel version (MPI & OpenMP), running on       1 processor cores
     Number of MPI processes:                 1
     Threads/MPI process:                     1

     MPI processes distributed on     1 nodes
     489933 MiB available memory on the printing compute node when the environment starts
 
     Reading input from pwscf.in
Warning: card &FCP ignored
Warning: card &RISM ignored

     Current dimensions of program PWSCF are:
     Max number of different atomic species (ntypx) = 10
     Max number of k-points (npk) =  40000
     Max angular momentum in pseudopotentials (lmaxx) =  4
     file Fe.pbesol-spn-kjpaw_psl.0.2.1.UPF: wavefunction(s)  3D renormalized
     file Mg.pbesol-n-kjpaw_psl.0.3.0.UPF: wavefunction(s)  3S renormalized
     file O.pbesol-n-kjpaw_psl.0.1.UPF: wavefunction(s)  2P renormalized
 check tnoseh fnoseh  F    1.000000000000000     
     Message from routine setup:
     using ibrav=0 with symmetry is DISCOURAGED, use correct ibrav instead
 
     Subspace diagonalization in iterative solution of the eigenvalue problem:
     a serial algorithm will be used

 
     G-vector sticks info
     --------------------
     sticks:   dense  smooth     PW     G-vecs:    dense   smooth      PW
     Sum       17945    5979   1611              1805721   347427   48913
 
     Using Slab Decomposition
 


     bravais-lattice index     =            0
     lattice parameter (alat)  =      14.4374  a.u.
     unit-cell volume          =    3012.1046 (a.u.)^3
     number of atoms/cell      =           36
     number of atomic types    =            4
     number of electrons       =       234.00
     number of Kohn-Sham states=          140
     kinetic-energy cutoff     =      90.0000  Ry
     charge density cutoff     =    1080.0000  Ry
     scf convergence threshold =      7.2E-09
     mixing beta               =       0.7000
     number of iterations used =            8  plain     mixing
     energy convergence thresh.=      3.6E-04
     force convergence thresh. =      1.0E-04
     press convergence thresh. =      5.0E-01
     Exchange-correlation= SLA  PW   PSX  PSC
                           (   1   4  10   8   0   0   0)
     nstep                     =          180


     GPU acceleration is ACTIVE.  1 visible GPUs per MPI rank
     GPU-aware MPI enabled


     GPU used by master process:

        Device Number: 0
        Device name: NVIDIA A100-SXM-64GB
        Compute capability : 80
        Ratio of single to double precision performance  : 2
        Memory Clock Rate (KHz): 1593000
        Memory Bus Width (bits): 4096
        Peak Memory Bandwidth (GB/s): ******
     Hubbard projectors: ortho-atomic
     Hubbard parameters of DFT+U (Dudarev formulation) in eV:
     U(Fe-3d) =  4.5000

     Internal variables: lda_plus_u = T, lda_plus_u_kind = 0

     celldm(1)=  14.437404  celldm(2)=   0.000000  celldm(3)=   0.000000
     celldm(4)=   0.000000  celldm(5)=   0.000000  celldm(6)=   0.000000

     crystal axes: (cart. coord. in units of alat)
               a(1) = (   1.000000   0.000000   0.000000 )  
               a(2) = (  -0.007522   1.000860   0.000000 )  
               a(3) = (  -0.007535  -0.007913   1.000068 )  

     reciprocal axes: (cart. coord. in units 2 pi/alat)
               b(1) = (  1.000000  0.007515  0.007594 )  
               b(2) = ( -0.000000  0.999141  0.007906 )  
               b(3) = (  0.000000 -0.000000  0.999932 )  


     PseudoPot. # 1 for Fe read from file:
     /leonardo_scratch/large/userexternal/nalghamd/mc_mace/GNoME-screening/2_space_group_DFT/pseudo_SSSP1.3_aiida/Fe.pbesol-spn-kjpaw_psl.0.2.1.UPF
     MD5 check sum: 4d7ec5aa2156491519a4322664fbbf52
     Pseudo is Projector augmented-wave + core cor, Zval = 16.0
     Generated using "atomic" code by A. Dal Corso  v.6.0 svn rev. 13079
     Shape of augmentation charge: PSQ
     Using radial grid of 1191 points,  6 beta functions with: 
                l(1) =   0
                l(2) =   0
                l(3) =   1
                l(4) =   1
                l(5) =   2
                l(6) =   2
     Q(r) pseudized with 0 coefficients 


     PseudoPot. # 2 for Mg read from file:
     /leonardo_scratch/large/userexternal/nalghamd/mc_mace/GNoME-screening/2_space_group_DFT/pseudo_SSSP1.3_aiida/Mg.pbesol-n-kjpaw_psl.0.3.0.UPF
     MD5 check sum: a6c8d2ff726a5f7005dea00130d82930
     Pseudo is Projector augmented-wave + core cor, Zval =  2.0
     Generated using "atomic" code by A. Dal Corso  v.6.1 svn rev. 13369
     Shape of augmentation charge: PSQ
     Using radial grid of 1129 points,  4 beta functions with: 
                l(1) =   0
                l(2) =   0
                l(3) =   1
                l(4) =   1
     Q(r) pseudized with 0 coefficients 


     PseudoPot. # 3 for N  read from file:
     /leonardo_scratch/large/userexternal/nalghamd/mc_mace/GNoME-screening/2_space_group_DFT/pseudo_SSSP1.3_aiida/N.pbesol-theos.UPF
     MD5 check sum: 1b64827339d390a5a22afef3ff345c9d
     Pseudo is Ultrasoft + core correction, Zval =  5.0
     Generated using "atomic" code by A. Dal Corso  v.5.1
     Using radial grid of 1085 points,  4 beta functions with: 
                l(1) =   0
                l(2) =   0
                l(3) =   1
                l(4) =   1
     Q(r) pseudized with 0 coefficients 


     PseudoPot. # 4 for O  read from file:
     /leonardo_scratch/large/userexternal/nalghamd/mc_mace/GNoME-screening/2_space_group_DFT/pseudo_SSSP1.3_aiida/O.pbesol-n-kjpaw_psl.0.1.UPF
     MD5 check sum: 81d73d1479e654e5638b0319f0d6c2c7
     Pseudo is Projector augmented-wave + core cor, Zval =  6.0
     Generated using "atomic" code by A. Dal Corso  v.6.0 svn rev. 13079
     Shape of augmentation charge: BESSEL
     Using radial grid of 1095 points,  4 beta functions with: 
                l(1) =   0
                l(2) =   0
                l(3) =   1
                l(4) =   1
     Q(r) pseudized with 0 coefficients 


     atomic species   valence    mass     pseudopotential
     Fe               16.00    55.84500     Fe( 1.00)
     Mg                2.00    24.30500     Mg( 1.00)
     N                 5.00    14.00670     N ( 1.00)
     O                 6.00    15.99940     O ( 1.00)

     Starting magnetic structure 
     atomic species   magnetization
     Fe              0.313
     Mg              0.100
     N               0.100
     O               0.100

      2 Sym. Ops., with inversion, found


                                    s                        frac. trans.

      isym =  1     identity                                     

 cryst.   s( 1) = (     1          0          0      )
                  (     0          1          0      )
                  (     0          0          1      )

 cart.    s( 1) = (  1.0000000  0.0000000 -0.0000000 )
                  (  0.0000000  1.0000000 -0.0000000 )
                  (  0.0000000  0.0000000  1.0000000 )


      isym =  2     inversion                                    

 cryst.   s( 2) = (    -1          0          0      )
                  (     0         -1          0      )
                  (     0          0         -1      )

 cart.    s( 2) = ( -1.0000000 -0.0000000  0.0000000 )
                  (  0.0000000 -1.0000000  0.0000000 )
                  (  0.0000000  0.0000000 -1.0000000 )


   Cartesian axes

     site n.     atom                  positions (alat units)
         1        Mg     tau(   1) = (   0.0000000   0.0000000   0.0000000  )
         2        Fe     tau(   2) = (   0.9924715   0.4964735   0.5000339  )
         3        Fe     tau(   3) = (   0.4962392   0.5004300   0.0000000  )
         4        Fe     tau(   4) = (   0.4887107   0.9969035   0.5000339  )
         5        N      tau(   5) = (   0.3313955   0.3340442   0.3365738  )
         6        N      tau(   6) = (   0.8391044   0.1545943   0.6544054  )
         7        N      tau(   7) = (   0.1483953   0.6481461   0.8452003  )
         8        N      tau(   8) = (   0.6467781   0.8446357   0.1597688  )
         9        N      tau(   9) = (   0.1458386   0.8383527   0.3456624  )
        10        N      tau(  10) = (   0.6535474   0.6589028   0.6634940  )
        11        N      tau(  11) = (   0.3381648   0.1483113   0.8402990  )
        12        N      tau(  12) = (   0.8365477   0.3448009   0.1548675  )
        13        O      tau(  13) = (   0.9765548   0.2458065   0.6353341  )
        14        O      tau(  14) = (   0.0083882   0.7471405   0.3647337  )
        15        O      tau(  15) = (   0.6259731   0.9819664   0.2508810  )
        16        O      tau(  16) = (   0.2388763   0.6279308   0.9830616  )
        17        O      tau(  17) = (   0.3249869   0.2202765   0.4564809  )
        18        O      tau(  18) = (   0.4520740   0.3284470   0.2235422  )
        19        O      tau(  19) = (   0.2176873   0.4541488   0.3302024  )
        20        O      tau(  20) = (   0.6599561   0.7726705   0.5435869  )
        21        O      tau(  21) = (   0.5328690   0.6645000   0.7765256  )
        22        O      tau(  22) = (   0.7672556   0.5387982   0.6698654  )
        23        O      tau(  23) = (   0.7161619   0.1683653   0.5447199  )
        24        O      tau(  24) = (   0.5380565   0.7208171   0.1726927  )
        25        O      tau(  25) = (   0.1628346   0.5392751   0.7215399  )
        26        O      tau(  26) = (   0.2687811   0.8245817   0.4553479  )
        27        O      tau(  27) = (   0.4468865   0.2721299   0.8273751  )
        28        O      tau(  28) = (   0.8221084   0.4536719   0.2785279  )
        29        O      tau(  29) = (   0.1585070   0.9424597   0.2179618  )
        30        O      tau(  30) = (   0.2095057   0.1598447   0.9433340  )
        31        O      tau(  31) = (   0.9403600   0.2169689   0.1671623  )
        32        O      tau(  32) = (   0.8264359   0.0504873   0.7821060  )
        33        O      tau(  33) = (   0.7754373   0.8331023   0.0567338  )
        34        O      tau(  34) = (   0.0445830   0.7759781   0.8329055  )
        35        O      tau(  35) = (   0.3589698   0.0109806   0.7491868  )
        36        O      tau(  36) = (   0.7460667   0.3650162   0.0170062  )

   Crystallographic axes

     site n.     atom                  positions (cryst. coord.)
         1        Mg     tau(   1) = (  0.0000000  0.0000000  0.0000000  )
         2        Fe     tau(   2) = (  1.0000000  0.5000000  0.5000000  )
         3        Fe     tau(   3) = (  0.5000000  0.5000000  0.0000000  )
         4        Fe     tau(   4) = (  0.5000000  1.0000000  0.5000000  )
         5        N      tau(   5) = (  0.3364620  0.3364180  0.3365510  )
         6        N      tau(   6) = (  0.8452360  0.1596350  0.6543610  )
         7        N      tau(   7) = (  0.1596850  0.6542710  0.8451430  )
         8        N      tau(   8) = (  0.6543390  0.8451730  0.1597580  )
         9        N      tau(   9) = (  0.1547640  0.8403650  0.3456390  )
        10        N      tau(  10) = (  0.6635380  0.6635820  0.6634490  )
        11        N      tau(  11) = (  0.3456610  0.1548270  0.8402420  )
        12        N      tau(  12) = (  0.8403150  0.3457290  0.1548570  )
        13        O      tau(  13) = (  0.9832270  0.2506180  0.6352910  )
        14        O      tau(  14) = (  0.0167730  0.7493820  0.3647090  )
        15        O      tau(  15) = (  0.6352580  0.9831060  0.2508640  )
        16        O      tau(  16) = (  0.2510610  0.6351630  0.9829950  )
        17        O      tau(  17) = (  0.3301090  0.2236960  0.4564500  )
        18        O      tau(  18) = (  0.4562400  0.3299320  0.2235270  )
        19        O      tau(  19) = (  0.2236080  0.4563690  0.3301800  )
        20        O      tau(  20) = (  0.6698910  0.7763040  0.5435500  )
        21        O      tau(  21) = (  0.5437600  0.6700680  0.7764730  )
        22        O      tau(  22) = (  0.7763920  0.5436310  0.6698200  )
        23        O      tau(  23) = (  0.7215640  0.1725270  0.5446830  )
        24        O      tau(  24) = (  0.5447850  0.7215630  0.1726810  )
        25        O      tau(  25) = (  0.1723670  0.5445160  0.7214910  )
        26        O      tau(  26) = (  0.2784360  0.8274730  0.4553170  )
        27        O      tau(  27) = (  0.4552150  0.2784370  0.8273190  )
        28        O      tau(  28) = (  0.8276330  0.4554840  0.2785090  )
        29        O      tau(  29) = (  0.1672450  0.9433730  0.2179470  )
        30        O      tau(  30) = (  0.2178710  0.1671650  0.9432700  )
        31        O      tau(  31) = (  0.9432600  0.2181040  0.1671510  )
        32        O      tau(  32) = (  0.8327550  0.0566270  0.7820530  )
        33        O      tau(  33) = (  0.7821290  0.8328350  0.0567300  )
        34        O      tau(  34) = (  0.0567400  0.7818960  0.8328490  )
        35        O      tau(  35) = (  0.3647420  0.0168940  0.7491360  )
        36        O      tau(  36) = (  0.7489390  0.3648370  0.0170050  )

     number of k points=   112  Marzari-Vanderbilt smearing, width (Ry)=  0.0200
                       cart. coord. in units 2pi/alat
        k(    1) = (   0.0000000   0.0000000   0.0000000), wk =   0.0046296
        k(    2) = (   0.0000000   0.0000000   0.1666554), wk =   0.0092593
        k(    3) = (   0.0000000   0.0000000   0.3333107), wk =   0.0092593
        k(    4) = (   0.0000000   0.0000000  -0.4999661), wk =   0.0046296
        k(    5) = (   0.0000000   0.1665235   0.0013176), wk =   0.0092593
        k(    6) = (   0.0000000   0.1665235   0.1679730), wk =   0.0092593
        k(    7) = (   0.0000000   0.1665235   0.3346283), wk =   0.0092593
        k(    8) = (   0.0000000   0.1665235  -0.4986485), wk =   0.0092593
        k(    9) = (   0.0000000   0.1665235  -0.3319931), wk =   0.0092593
        k(   10) = (   0.0000000   0.1665235  -0.1653378), wk =   0.0092593
        k(   11) = (   0.0000000   0.3330469   0.0026352), wk =   0.0092593
        k(   12) = (   0.0000000   0.3330469   0.1692906), wk =   0.0092593
        k(   13) = (   0.0000000   0.3330469   0.3359459), wk =   0.0092593
        k(   14) = (   0.0000000   0.3330469  -0.4973309), wk =   0.0092593
        k(   15) = (   0.0000000   0.3330469  -0.3306755), wk =   0.0092593
        k(   16) = (   0.0000000   0.3330469  -0.1640202), wk =   0.0092593
        k(   17) = (   0.0000000  -0.4995704  -0.0039528), wk =   0.0046296
        k(   18) = (   0.0000000  -0.4995704   0.1627026), wk =   0.0092593
        k(   19) = (   0.0000000  -0.4995704   0.3293579), wk =   0.0092593
        k(   20) = (   0.0000000  -0.4995704  -0.5039189), wk =   0.0046296
        k(   21) = (   0.1666667   0.0012525   0.0012657), wk =   0.0092593
        k(   22) = (   0.1666667   0.0012525   0.1679211), wk =   0.0092593
        k(   23) = (   0.1666667   0.0012525   0.3345765), wk =   0.0092593
        k(   24) = (   0.1666667   0.0012525  -0.4987004), wk =   0.0092593
        k(   25) = (   0.1666667   0.0012525  -0.3320450), wk =   0.0092593
        k(   26) = (   0.1666667   0.0012525  -0.1653896), wk =   0.0092593
        k(   27) = (   0.1666667   0.1677760   0.0025833), wk =   0.0092593
        k(   28) = (   0.1666667   0.1677760   0.1692387), wk =   0.0092593
        k(   29) = (   0.1666667   0.1677760   0.3358941), wk =   0.0092593
        k(   30) = (   0.1666667   0.1677760  -0.4973828), wk =   0.0092593
        k(   31) = (   0.1666667   0.1677760  -0.3307274), wk =   0.0092593
        k(   32) = (   0.1666667   0.1677760  -0.1640720), wk =   0.0092593
        k(   33) = (   0.1666667   0.3342994   0.0039009), wk =   0.0092593
        k(   34) = (   0.1666667   0.3342994   0.1705563), wk =   0.0092593
        k(   35) = (   0.1666667   0.3342994   0.3372117), wk =   0.0092593
        k(   36) = (   0.1666667   0.3342994  -0.4960652), wk =   0.0092593
        k(   37) = (   0.1666667   0.3342994  -0.3294098), wk =   0.0092593
        k(   38) = (   0.1666667   0.3342994  -0.1627544), wk =   0.0092593
        k(   39) = (   0.1666667  -0.4983179  -0.0026871), wk =   0.0092593
        k(   40) = (   0.1666667  -0.4983179   0.1639683), wk =   0.0092593
        k(   41) = (   0.1666667  -0.4983179   0.3306237), wk =   0.0092593
        k(   42) = (   0.1666667  -0.4983179  -0.5026532), wk =   0.0092593
        k(   43) = (   0.1666667  -0.4983179  -0.3359978), wk =   0.0092593
        k(   44) = (   0.1666667  -0.4983179  -0.1693424), wk =   0.0092593
        k(   45) = (   0.1666667  -0.3317944  -0.0013695), wk =   0.0092593
        k(   46) = (   0.1666667  -0.3317944   0.1652859), wk =   0.0092593
        k(   47) = (   0.1666667  -0.3317944   0.3319413), wk =   0.0092593
        k(   48) = (   0.1666667  -0.3317944  -0.5013356), wk =   0.0092593
        k(   49) = (   0.1666667  -0.3317944  -0.3346802), wk =   0.0092593
        k(   50) = (   0.1666667  -0.3317944  -0.1680248), wk =   0.0092593
        k(   51) = (   0.1666667  -0.1652709  -0.0000519), wk =   0.0092593
        k(   52) = (   0.1666667  -0.1652709   0.1666035), wk =   0.0092593
        k(   53) = (   0.1666667  -0.1652709   0.3332589), wk =   0.0092593
        k(   54) = (   0.1666667  -0.1652709  -0.5000180), wk =   0.0092593
        k(   55) = (   0.1666667  -0.1652709  -0.3333626), wk =   0.0092593
        k(   56) = (   0.1666667  -0.1652709  -0.1667072), wk =   0.0092593
        k(   57) = (   0.3333333   0.0025050   0.0025315), wk =   0.0092593
        k(   58) = (   0.3333333   0.0025050   0.1691868), wk =   0.0092593
        k(   59) = (   0.3333333   0.0025050   0.3358422), wk =   0.0092593
        k(   60) = (   0.3333333   0.0025050  -0.4974346), wk =   0.0092593
        k(   61) = (   0.3333333   0.0025050  -0.3307793), wk =   0.0092593
        k(   62) = (   0.3333333   0.0025050  -0.1641239), wk =   0.0092593
        k(   63) = (   0.3333333   0.1690285   0.0038491), wk =   0.0092593
        k(   64) = (   0.3333333   0.1690285   0.1705044), wk =   0.0092593
        k(   65) = (   0.3333333   0.1690285   0.3371598), wk =   0.0092593
        k(   66) = (   0.3333333   0.1690285  -0.4961170), wk =   0.0092593
        k(   67) = (   0.3333333   0.1690285  -0.3294617), wk =   0.0092593
        k(   68) = (   0.3333333   0.1690285  -0.1628063), wk =   0.0092593
        k(   69) = (   0.3333333   0.3355520   0.0051667), wk =   0.0092593
        k(   70) = (   0.3333333   0.3355520   0.1718220), wk =   0.0092593
        k(   71) = (   0.3333333   0.3355520   0.3384774), wk =   0.0092593
        k(   72) = (   0.3333333   0.3355520  -0.4947994), wk =   0.0092593
        k(   73) = (   0.3333333   0.3355520  -0.3281441), wk =   0.0092593
        k(   74) = (   0.3333333   0.3355520  -0.1614887), wk =   0.0092593
        k(   75) = (   0.3333333  -0.4970654  -0.0014213), wk =   0.0092593
        k(   76) = (   0.3333333  -0.4970654   0.1652340), wk =   0.0092593
        k(   77) = (   0.3333333  -0.4970654   0.3318894), wk =   0.0092593
        k(   78) = (   0.3333333  -0.4970654  -0.5013874), wk =   0.0092593
        k(   79) = (   0.3333333  -0.4970654  -0.3347321), wk =   0.0092593
        k(   80) = (   0.3333333  -0.4970654  -0.1680767), wk =   0.0092593
        k(   81) = (   0.3333333  -0.3305419  -0.0001037), wk =   0.0092593
        k(   82) = (   0.3333333  -0.3305419   0.1665516), wk =   0.0092593
        k(   83) = (   0.3333333  -0.3305419   0.3332070), wk =   0.0092593
        k(   84) = (   0.3333333  -0.3305419  -0.5000698), wk =   0.0092593
        k(   85) = (   0.3333333  -0.3305419  -0.3334145), wk =   0.0092593
        k(   86) = (   0.3333333  -0.3305419  -0.1667591), wk =   0.0092593
        k(   87) = (   0.3333333  -0.1640184   0.0012139), wk =   0.0092593
        k(   88) = (   0.3333333  -0.1640184   0.1678692), wk =   0.0092593
        k(   89) = (   0.3333333  -0.1640184   0.3345246), wk =   0.0092593
        k(   90) = (   0.3333333  -0.1640184  -0.4987522), wk =   0.0092593
        k(   91) = (   0.3333333  -0.1640184  -0.3320969), wk =   0.0092593
        k(   92) = (   0.3333333  -0.1640184  -0.1654415), wk =   0.0092593
        k(   93) = (  -0.5000000  -0.0037575  -0.0037972), wk =   0.0046296
        k(   94) = (  -0.5000000  -0.0037575   0.1628582), wk =   0.0092593
        k(   95) = (  -0.5000000  -0.0037575   0.3295135), wk =   0.0092593
        k(   96) = (  -0.5000000  -0.0037575  -0.5037633), wk =   0.0046296
        k(   97) = (  -0.5000000   0.1627659  -0.0024796), wk =   0.0092593
        k(   98) = (  -0.5000000   0.1627659   0.1641758), wk =   0.0092593
        k(   99) = (  -0.5000000   0.1627659   0.3308311), wk =   0.0092593
        k(  100) = (  -0.5000000   0.1627659  -0.5024457), wk =   0.0092593
        k(  101) = (  -0.5000000   0.1627659  -0.3357903), wk =   0.0092593
        k(  102) = (  -0.5000000   0.1627659  -0.1691350), wk =   0.0092593
        k(  103) = (  -0.5000000   0.3292894  -0.0011620), wk =   0.0092593
        k(  104) = (  -0.5000000   0.3292894   0.1654934), wk =   0.0092593
        k(  105) = (  -0.5000000   0.3292894   0.3321487), wk =   0.0092593
        k(  106) = (  -0.5000000   0.3292894  -0.5011281), wk =   0.0092593
        k(  107) = (  -0.5000000   0.3292894  -0.3344727), wk =   0.0092593
        k(  108) = (  -0.5000000   0.3292894  -0.1678174), wk =   0.0092593
        k(  109) = (  -0.5000000  -0.5033279  -0.0077500), wk =   0.0046296
        k(  110) = (  -0.5000000  -0.5033279   0.1589053), wk =   0.0092593
        k(  111) = (  -0.5000000  -0.5033279   0.3255607), wk =   0.0092593
        k(  112) = (  -0.5000000  -0.5033279  -0.5077161), wk =   0.0046296

                       cryst. coord.
        k(    1) = (   0.0000000   0.0000000   0.0000000), wk =   0.0046296
        k(    2) = (   0.0000000   0.0000000   0.1666667), wk =   0.0092593
        k(    3) = (   0.0000000   0.0000000   0.3333333), wk =   0.0092593
        k(    4) = (   0.0000000   0.0000000  -0.5000000), wk =   0.0046296
        k(    5) = (   0.0000000   0.1666667  -0.0000000), wk =   0.0092593
        k(    6) = (   0.0000000   0.1666667   0.1666667), wk =   0.0092593
        k(    7) = (   0.0000000   0.1666667   0.3333333), wk =   0.0092593
        k(    8) = (   0.0000000   0.1666667  -0.5000000), wk =   0.0092593
        k(    9) = (   0.0000000   0.1666667  -0.3333333), wk =   0.0092593
        k(   10) = (   0.0000000   0.1666667  -0.1666667), wk =   0.0092593
        k(   11) = (   0.0000000   0.3333333  -0.0000000), wk =   0.0092593
        k(   12) = (   0.0000000   0.3333333   0.1666667), wk =   0.0092593
        k(   13) = (   0.0000000   0.3333333   0.3333333), wk =   0.0092593
        k(   14) = (   0.0000000   0.3333333  -0.5000000), wk =   0.0092593
        k(   15) = (   0.0000000   0.3333333  -0.3333333), wk =   0.0092593
        k(   16) = (   0.0000000   0.3333333  -0.1666667), wk =   0.0092593
        k(   17) = (   0.0000000  -0.5000000  -0.0000000), wk =   0.0046296
        k(   18) = (   0.0000000  -0.5000000   0.1666667), wk =   0.0092593
        k(   19) = (   0.0000000  -0.5000000   0.3333333), wk =   0.0092593
        k(   20) = (   0.0000000  -0.5000000  -0.5000000), wk =   0.0046296
        k(   21) = (   0.1666667  -0.0000000   0.0000000), wk =   0.0092593
        k(   22) = (   0.1666667  -0.0000000   0.1666667), wk =   0.0092593
        k(   23) = (   0.1666667  -0.0000000   0.3333333), wk =   0.0092593
        k(   24) = (   0.1666667  -0.0000000  -0.5000000), wk =   0.0092593
        k(   25) = (   0.1666667  -0.0000000  -0.3333333), wk =   0.0092593
        k(   26) = (   0.1666667  -0.0000000  -0.1666667), wk =   0.0092593
        k(   27) = (   0.1666667   0.1666667  -0.0000000), wk =   0.0092593
        k(   28) = (   0.1666667   0.1666667   0.1666667), wk =   0.0092593
        k(   29) = (   0.1666667   0.1666667   0.3333333), wk =   0.0092593
        k(   30) = (   0.1666667   0.1666667  -0.5000000), wk =   0.0092593
        k(   31) = (   0.1666667   0.1666667  -0.3333333), wk =   0.0092593
        k(   32) = (   0.1666667   0.1666667  -0.1666667), wk =   0.0092593
        k(   33) = (   0.1666667   0.3333333  -0.0000000), wk =   0.0092593
        k(   34) = (   0.1666667   0.3333333   0.1666667), wk =   0.0092593
        k(   35) = (   0.1666667   0.3333333   0.3333333), wk =   0.0092593
        k(   36) = (   0.1666667   0.3333333  -0.5000000), wk =   0.0092593
        k(   37) = (   0.1666667   0.3333333  -0.3333333), wk =   0.0092593
        k(   38) = (   0.1666667   0.3333333  -0.1666667), wk =   0.0092593
        k(   39) = (   0.1666667  -0.5000000   0.0000000), wk =   0.0092593
        k(   40) = (   0.1666667  -0.5000000   0.1666667), wk =   0.0092593
        k(   41) = (   0.1666667  -0.5000000   0.3333333), wk =   0.0092593
        k(   42) = (   0.1666667  -0.5000000  -0.5000000), wk =   0.0092593
        k(   43) = (   0.1666667  -0.5000000  -0.3333333), wk =   0.0092593
        k(   44) = (   0.1666667  -0.5000000  -0.1666667), wk =   0.0092593
        k(   45) = (   0.1666667  -0.3333333  -0.0000000), wk =   0.0092593
        k(   46) = (   0.1666667  -0.3333333   0.1666667), wk =   0.0092593
        k(   47) = (   0.1666667  -0.3333333   0.3333333), wk =   0.0092593
        k(   48) = (   0.1666667  -0.3333333  -0.5000000), wk =   0.0092593
        k(   49) = (   0.1666667  -0.3333333  -0.3333333), wk =   0.0092593
        k(   50) = (   0.1666667  -0.3333333  -0.1666667), wk =   0.0092593
        k(   51) = (   0.1666667  -0.1666667  -0.0000000), wk =   0.0092593
        k(   52) = (   0.1666667  -0.1666667   0.1666667), wk =   0.0092593
        k(   53) = (   0.1666667  -0.1666667   0.3333333), wk =   0.0092593
        k(   54) = (   0.1666667  -0.1666667  -0.5000000), wk =   0.0092593
        k(   55) = (   0.1666667  -0.1666667  -0.3333333), wk =   0.0092593
        k(   56) = (   0.1666667  -0.1666667  -0.1666667), wk =   0.0092593
        k(   57) = (   0.3333333  -0.0000000   0.0000000), wk =   0.0092593
        k(   58) = (   0.3333333  -0.0000000   0.1666667), wk =   0.0092593
        k(   59) = (   0.3333333  -0.0000000   0.3333333), wk =   0.0092593
        k(   60) = (   0.3333333  -0.0000000  -0.5000000), wk =   0.0092593
        k(   61) = (   0.3333333  -0.0000000  -0.3333333), wk =   0.0092593
        k(   62) = (   0.3333333  -0.0000000  -0.1666667), wk =   0.0092593
        k(   63) = (   0.3333333   0.1666667  -0.0000000), wk =   0.0092593
        k(   64) = (   0.3333333   0.1666667   0.1666667), wk =   0.0092593
        k(   65) = (   0.3333333   0.1666667   0.3333333), wk =   0.0092593
        k(   66) = (   0.3333333   0.1666667  -0.5000000), wk =   0.0092593
        k(   67) = (   0.3333333   0.1666667  -0.3333333), wk =   0.0092593
        k(   68) = (   0.3333333   0.1666667  -0.1666667), wk =   0.0092593
        k(   69) = (   0.3333333   0.3333333  -0.0000000), wk =   0.0092593
        k(   70) = (   0.3333333   0.3333333   0.1666667), wk =   0.0092593
        k(   71) = (   0.3333333   0.3333333   0.3333333), wk =   0.0092593
        k(   72) = (   0.3333333   0.3333333  -0.5000000), wk =   0.0092593
        k(   73) = (   0.3333333   0.3333333  -0.3333333), wk =   0.0092593
        k(   74) = (   0.3333333   0.3333333  -0.1666667), wk =   0.0092593
        k(   75) = (   0.3333333  -0.5000000   0.0000000), wk =   0.0092593
        k(   76) = (   0.3333333  -0.5000000   0.1666667), wk =   0.0092593
        k(   77) = (   0.3333333  -0.5000000   0.3333333), wk =   0.0092593
        k(   78) = (   0.3333333  -0.5000000  -0.5000000), wk =   0.0092593
        k(   79) = (   0.3333333  -0.5000000  -0.3333333), wk =   0.0092593
        k(   80) = (   0.3333333  -0.5000000  -0.1666667), wk =   0.0092593
        k(   81) = (   0.3333333  -0.3333333  -0.0000000), wk =   0.0092593
        k(   82) = (   0.3333333  -0.3333333   0.1666667), wk =   0.0092593
        k(   83) = (   0.3333333  -0.3333333   0.3333333), wk =   0.0092593
        k(   84) = (   0.3333333  -0.3333333  -0.5000000), wk =   0.0092593
        k(   85) = (   0.3333333  -0.3333333  -0.3333333), wk =   0.0092593
        k(   86) = (   0.3333333  -0.3333333  -0.1666667), wk =   0.0092593
        k(   87) = (   0.3333333  -0.1666667   0.0000000), wk =   0.0092593
        k(   88) = (   0.3333333  -0.1666667   0.1666667), wk =   0.0092593
        k(   89) = (   0.3333333  -0.1666667   0.3333333), wk =   0.0092593
        k(   90) = (   0.3333333  -0.1666667  -0.5000000), wk =   0.0092593
        k(   91) = (   0.3333333  -0.1666667  -0.3333333), wk =   0.0092593
        k(   92) = (   0.3333333  -0.1666667  -0.1666667), wk =   0.0092593
        k(   93) = (  -0.5000000  -0.0000000  -0.0000000), wk =   0.0046296
        k(   94) = (  -0.5000000  -0.0000000   0.1666667), wk =   0.0092593
        k(   95) = (  -0.5000000  -0.0000000   0.3333333), wk =   0.0092593
        k(   96) = (  -0.5000000  -0.0000000  -0.5000000), wk =   0.0046296
        k(   97) = (  -0.5000000   0.1666667  -0.0000000), wk =   0.0092593
        k(   98) = (  -0.5000000   0.1666667   0.1666667), wk =   0.0092593
        k(   99) = (  -0.5000000   0.1666667   0.3333333), wk =   0.0092593
        k(  100) = (  -0.5000000   0.1666667  -0.5000000), wk =   0.0092593
        k(  101) = (  -0.5000000   0.1666667  -0.3333333), wk =   0.0092593
        k(  102) = (  -0.5000000   0.1666667  -0.1666667), wk =   0.0092593
        k(  103) = (  -0.5000000   0.3333333  -0.0000000), wk =   0.0092593
        k(  104) = (  -0.5000000   0.3333333   0.1666667), wk =   0.0092593
        k(  105) = (  -0.5000000   0.3333333   0.3333333), wk =   0.0092593
        k(  106) = (  -0.5000000   0.3333333  -0.5000000), wk =   0.0092593
        k(  107) = (  -0.5000000   0.3333333  -0.3333333), wk =   0.0092593
        k(  108) = (  -0.5000000   0.3333333  -0.1666667), wk =   0.0092593
        k(  109) = (  -0.5000000  -0.5000000   0.0000000), wk =   0.0046296
        k(  110) = (  -0.5000000  -0.5000000   0.1666667), wk =   0.0092593
        k(  111) = (  -0.5000000  -0.5000000   0.3333333), wk =   0.0092593
        k(  112) = (  -0.5000000  -0.5000000  -0.5000000), wk =   0.0046296

     Dense  grid:  1805721 G-vectors     FFT dimensions: ( 160, 160, 160)

     Smooth grid:   347427 G-vectors     FFT dimensions: (  90,  90,  90)

     Dynamical RAM for                 wfc:      92.77 MB

     Dynamical RAM for     wfc (w. buffer):   20874.23 MB

     Dynamical RAM for             U proj.:       9.94 MB

     Dynamical RAM for  U proj. (w. buff.):    2236.52 MB

     Dynamical RAM for           str. fact:     110.21 MB

     Dynamical RAM for           local pot:       0.00 MB

     Dynamical RAM for          nlocal pot:     210.73 MB

     Dynamical RAM for                qrad:      21.08 MB

     Dynamical RAM for          rho,v,vnew:     352.82 MB

     Dynamical RAM for               rhoin:     117.61 MB

     Dynamical RAM for            rho*nmix:     881.70 MB

     Dynamical RAM for           G-vectors:     105.97 MB

     Dynamical RAM for          h,s,v(r/c):       0.90 MB

     Dynamical RAM for          <psi|beta>:       0.68 MB

     Dynamical RAM for      wfcinit/wfcrot:     186.00 MB

     Dynamical RAM for           addusdens:    5813.71 MB

     Dynamical RAM for          addusforce:    7081.34 MB

     Dynamical RAM for         addusstress:    5579.51 MB

     Estimated static dynamical RAM per process >      23.78 GB

     Estimated max dynamical RAM per process >      31.56 GB

     Atomic positions and unit cell read from directory:
     ./out/aiida.save/
 
     New effective cutoffs (rho, wfc): 1080.00   90.00

     Check: negative core charge=   -0.000002
     Generating pointlists ...
     new r_m :   0.1166 (alat units)  1.6836 (a.u.) for type    1
     new r_m :   0.1156 (alat units)  1.6682 (a.u.) for type    2
     new r_m :   0.0681 (alat units)  0.9834 (a.u.) for type    3
     new r_m :   0.0681 (alat units)  0.9834 (a.u.) for type    4

     The initial density is read from file :
     ./out/aiida.save/charge-density


     negative rho (up, down):  0.000E+00 4.581E-04

     HUBBARD ENERGY =    0.1199  (Ry)

     STARTING HUBBARD OCCUPATIONS:

     =================== HUBBARD OCCUPATIONS ===================
     ------------------------ ATOM    2 ------------------------
     Tr[ns(  2)] (up, down, total) =   4.97557  1.19581  6.17138
     Atomic magnetic moment for atom   2 =   3.77977
     SPIN  1
     eigenvalues:
       0.993  0.994  0.994  0.996  0.998
     eigenvectors (columns):
      -0.202  0.422  0.136 -0.861  0.145
      -0.758 -0.268 -0.573 -0.068 -0.141
       0.522  0.292 -0.752 -0.139 -0.238
       0.283 -0.734  0.119 -0.471 -0.381
       0.177 -0.356 -0.270 -0.112  0.870
     occupation matrix ns (before diag.):
       0.995 -0.000  0.000  0.001  0.001
      -0.000  0.994  0.001  0.000 -0.000
       0.000  0.001  0.994  0.000 -0.001
       0.001  0.000  0.000  0.995 -0.001
       0.001 -0.000 -0.001 -0.001  0.997
     SPIN  2
     eigenvalues:
       0.011  0.023  0.084  0.098  0.979
     eigenvectors (columns):
      -0.216  0.800 -0.276  0.331 -0.357
      -0.393  0.228  0.821 -0.304 -0.167
       0.216  0.503 -0.154 -0.617  0.544
       0.026  0.158  0.342  0.641  0.668
      -0.867 -0.172 -0.331 -0.079  0.320
     occupation matrix ns (before diag.):
       0.157  0.035 -0.197 -0.218 -0.108
       0.035  0.096 -0.080 -0.104 -0.070
      -0.197 -0.080  0.335  0.314  0.175
      -0.218 -0.104  0.314  0.488  0.194
      -0.108 -0.070  0.175  0.194  0.120
     ------------------------ ATOM    3 ------------------------
     Tr[ns(  3)] (up, down, total) =   4.97545  1.20449  6.17994
     Atomic magnetic moment for atom   3 =   3.77096
     SPIN  1
     eigenvalues:
       0.992  0.993  0.996  0.996  0.998
     eigenvectors (columns):
       0.226  0.573  0.360  0.467  0.523
      -0.389  0.103 -0.471 -0.358  0.699
       0.863 -0.303 -0.243 -0.168  0.276
      -0.028 -0.022 -0.695  0.708 -0.117
       0.228  0.754 -0.327 -0.352 -0.385
     occupation matrix ns (before diag.):
       0.995  0.001  0.000  0.000 -0.002
       0.001  0.996  0.002 -0.000 -0.000
       0.000  0.002  0.993 -0.000 -0.000
       0.000 -0.000 -0.000  0.996  0.000
      -0.002 -0.000 -0.000  0.000  0.995
     SPIN  2
     eigenvalues:
       0.015  0.024  0.083  0.097  0.986
     eigenvectors (columns):
       0.683  0.526  0.502 -0.062 -0.035
      -0.092 -0.225  0.276 -0.175 -0.913
      -0.221 -0.201  0.441 -0.770  0.352
      -0.246  0.691 -0.459 -0.462 -0.196
      -0.644  0.395  0.516  0.400  0.047
     occupation matrix ns (before diag.):
       0.036  0.040  0.006 -0.003  0.016
       0.040  0.833 -0.292  0.170 -0.039
       0.006 -0.292  0.197 -0.053  0.006
      -0.003  0.170 -0.053  0.088 -0.038
       0.016 -0.039  0.006 -0.038  0.050
     ------------------------ ATOM    4 ------------------------
     Tr[ns(  4)] (up, down, total) =   4.97564  1.20391  6.17955
     Atomic magnetic moment for atom   4 =   3.77172
     SPIN  1
     eigenvalues:
       0.992  0.994  0.996  0.996  0.998
     eigenvectors (columns):
      -0.007  0.350 -0.510 -0.742  0.257
       0.496  0.634 -0.330  0.474 -0.137
       0.157  0.002  0.083 -0.373 -0.911
       0.003  0.583  0.772 -0.201  0.155
       0.854 -0.368  0.169 -0.212  0.249
     occupation matrix ns (before diag.):
       0.996 -0.001 -0.000 -0.000  0.000
      -0.001  0.994 -0.000 -0.001 -0.001
      -0.000 -0.000  0.998 -0.000 -0.001
      -0.000 -0.001 -0.000  0.995  0.000
       0.000 -0.001 -0.001  0.000  0.993
     SPIN  2
     eigenvalues:
       0.015  0.023  0.085  0.096  0.985
     eigenvectors (columns):
      -0.516  0.402  0.076  0.722 -0.213
       0.337 -0.450 -0.026  0.646  0.515
      -0.756 -0.321 -0.293 -0.198  0.448
      -0.179 -0.724  0.308  0.070 -0.587
      -0.131  0.096  0.901 -0.130  0.379
     occupation matrix ns (before diag.):
       0.103 -0.070 -0.107  0.125 -0.081
      -0.070  0.308  0.215 -0.288  0.181
      -0.107  0.215  0.220 -0.261  0.148
       0.125 -0.288 -0.261  0.361 -0.198
      -0.081  0.181  0.148 -0.198  0.213

     Number of occupied Hubbard levels =   18.5309

     Atomic wfc used for Hubbard projectors are orthogonalized

     Starting wfcs from file
     Checking if some PAW data can be deallocated... 
     Calculation restarted from scf iteration #   444

     total cpu time spent up to now is       13.3 secs

     Self-consistent Calculation
[tb_dev] Currently allocated     2.19E+00 Mbytes, locked:    0 /   3
[tb_pin] Currently allocated     0.00E+00 Mbytes, locked:    0 /   0

     iteration #444     ecut=    90.00 Ry     beta= 0.70
     Calculation restarted from kpoint #   164
     CG style diagonalization

---- Real-time Memory Report at c_bands before calling an iterative solver
         19299 MiB given to the printing process from OS
             0 MiB allocation reported by mallinfo(arena+hblkhd)
        454874 MiB available memory on the node where the printing process lives
     GPU memory used/free/total (MiB): 10082 / 54862 / 64944
------------------
     c_bands:  2 eigenvalues not converged
     c_bands:  4 eigenvalues not converged
     c_bands:  2 eigenvalues not converged
     c_bands:  2 eigenvalues not converged
     c_bands:  3 eigenvalues not converged
     c_bands:  3 eigenvalues not converged
     c_bands:  2 eigenvalues not converged
     c_bands:  2 eigenvalues not converged
     c_bands:  1 eigenvalues not converged
     c_bands:  1 eigenvalues not converged
     c_bands:  2 eigenvalues not converged
     c_bands:  3 eigenvalues not converged
     c_bands:  1 eigenvalues not converged
     c_bands:  1 eigenvalues not converged
     c_bands:  4 eigenvalues not converged
     c_bands:  1 eigenvalues not converged
     c_bands:  2 eigenvalues not converged
     c_bands:  2 eigenvalues not converged
     c_bands:  1 eigenvalues not converged
     c_bands:  5 eigenvalues not converged
     c_bands:  4 eigenvalues not converged
     c_bands:  5 eigenvalues not converged
     c_bands:  2 eigenvalues not converged
     c_bands:  2 eigenvalues not converged
     c_bands:  1 eigenvalues not converged
     c_bands:  3 eigenvalues not converged
     c_bands:  5 eigenvalues not converged
     c_bands:  5 eigenvalues not converged
     c_bands:  5 eigenvalues not converged
     c_bands:  1 eigenvalues not converged
     c_bands:  1 eigenvalues not converged
     c_bands:  1 eigenvalues not converged
     c_bands:  4 eigenvalues not converged
     c_bands:  5 eigenvalues not converged
     c_bands:  2 eigenvalues not converged
     c_bands:  2 eigenvalues not converged
     c_bands:  3 eigenvalues not converged
     c_bands:  1 eigenvalues not converged
     c_bands:  4 eigenvalues not converged
     c_bands:  5 eigenvalues not converged
     c_bands:  2 eigenvalues not converged
     c_bands:  4 eigenvalues not converged
     c_bands:  2 eigenvalues not converged
     c_bands:  1 eigenvalues not converged
     c_bands:  5 eigenvalues not converged
     c_bands:  5 eigenvalues not converged
     c_bands:  2 eigenvalues not converged
     c_bands:  1 eigenvalues not converged
     c_bands:  5 eigenvalues not converged
     c_bands:  1 eigenvalues not converged
     c_bands:  5 eigenvalues not converged
     c_bands:  1 eigenvalues not converged
     c_bands:  1 eigenvalues not converged
     c_bands:  3 eigenvalues not converged
     c_bands:  4 eigenvalues not converged
     c_bands:  3 eigenvalues not converged
     c_bands:  5 eigenvalues not converged
     c_bands:  1 eigenvalues not converged
     c_bands:  1 eigenvalues not converged
     c_bands:  5 eigenvalues not converged
     c_bands:  5 eigenvalues not converged
     ethr =  1.27E-11,  avg # of iterations =  5.0

     =================== HUBBARD OCCUPATIONS ===================
     ------------------------ ATOM    2 ------------------------
     Tr[ns(  2)] (up, down, total) =   4.97557  1.19581  6.17138
     Atomic magnetic moment for atom   2 =   3.77976
     SPIN  1
     eigenvalues:
       0.993  0.994  0.994  0.996  0.998
     eigenvectors (columns):
      -0.202  0.422  0.136 -0.861  0.145
      -0.758 -0.268 -0.573 -0.068 -0.141
       0.522  0.292 -0.752 -0.139 -0.238
       0.283 -0.734  0.119 -0.471 -0.381
       0.177 -0.356 -0.270 -0.112  0.870
     occupation matrix ns (before diag.):
       0.995 -0.000  0.000  0.001  0.001
      -0.000  0.994  0.001  0.000 -0.000
       0.000  0.001  0.994  0.000 -0.001
       0.001  0.000  0.000  0.995 -0.001
       0.001 -0.000 -0.001 -0.001  0.997
     SPIN  2
     eigenvalues:
       0.011  0.023  0.084  0.098  0.979
     eigenvectors (columns):
      -0.216  0.800 -0.276  0.331 -0.357
      -0.393  0.228  0.821 -0.304 -0.167
       0.216  0.503 -0.154 -0.617  0.544
       0.026  0.158  0.342  0.641  0.668
      -0.867 -0.172 -0.331 -0.079  0.320
     occupation matrix ns (before diag.):
       0.157  0.035 -0.198 -0.218 -0.108
       0.035  0.096 -0.080 -0.104 -0.070
      -0.198 -0.080  0.335  0.314  0.175
      -0.218 -0.104  0.314  0.488  0.194
      -0.108 -0.070  0.175  0.194  0.119
     ------------------------ ATOM    3 ------------------------
     Tr[ns(  3)] (up, down, total) =   4.97545  1.20450  6.17994
     Atomic magnetic moment for atom   3 =   3.77095
     SPIN  1
     eigenvalues:
       0.992  0.993  0.996  0.996  0.998
     eigenvectors (columns):
       0.226  0.573  0.360  0.467  0.523
      -0.389  0.103 -0.471 -0.358  0.699
       0.863 -0.303 -0.243 -0.168  0.276
      -0.028 -0.022 -0.695  0.708 -0.117
       0.228  0.754 -0.327 -0.352 -0.385
     occupation matrix ns (before diag.):
       0.995  0.001  0.000  0.000 -0.002
       0.001  0.996  0.002 -0.000 -0.000
       0.000  0.002  0.993 -0.000 -0.000
       0.000 -0.000 -0.000  0.996  0.000
      -0.002 -0.000 -0.000  0.000  0.995
     SPIN  2
     eigenvalues:
       0.015  0.024  0.083  0.097  0.985
     eigenvectors (columns):
       0.683  0.526  0.502 -0.062 -0.035
      -0.092 -0.225  0.276 -0.175 -0.913
      -0.221 -0.201  0.441 -0.770  0.352
      -0.246  0.690 -0.459 -0.462 -0.196
      -0.645  0.395  0.516  0.400  0.047
     occupation matrix ns (before diag.):
       0.036  0.040  0.006 -0.003  0.016
       0.040  0.833 -0.292  0.170 -0.039
       0.006 -0.292  0.197 -0.053  0.006
      -0.003  0.170 -0.053  0.088 -0.038
       0.016 -0.039  0.006 -0.038  0.050
     ------------------------ ATOM    4 ------------------------
     Tr[ns(  4)] (up, down, total) =   4.97563  1.20391  6.17954
     Atomic magnetic moment for atom   4 =   3.77173
     SPIN  1
     eigenvalues:
       0.992  0.994  0.996  0.996  0.998
     eigenvectors (columns):
      -0.007  0.351 -0.509 -0.742  0.257
       0.496  0.634 -0.330  0.473 -0.137
       0.157  0.002  0.083 -0.373 -0.911
       0.003  0.583  0.772 -0.201  0.155
       0.854 -0.368  0.169 -0.212  0.249
     occupation matrix ns (before diag.):
       0.996 -0.001 -0.000 -0.000  0.000
      -0.001  0.994 -0.000 -0.001 -0.001
      -0.000 -0.000  0.998 -0.000 -0.001
      -0.000 -0.001 -0.000  0.995  0.000
       0.000 -0.001 -0.001  0.000  0.993
     SPIN  2
     eigenvalues:
       0.015  0.023  0.085  0.096  0.985
     eigenvectors (columns):
      -0.516  0.402  0.076  0.722 -0.213
       0.337 -0.450 -0.026  0.646  0.515
      -0.756 -0.321 -0.293 -0.198  0.448
      -0.178 -0.724  0.308  0.070 -0.587
      -0.131  0.096  0.901 -0.130  0.379
     occupation matrix ns (before diag.):
       0.103 -0.071 -0.107  0.125 -0.081
      -0.071  0.308  0.215 -0.288  0.181
      -0.107  0.215  0.220 -0.261  0.148
       0.125 -0.288 -0.261  0.361 -0.198
      -0.081  0.181  0.148 -0.198  0.213

     Number of occupied Hubbard levels =   18.5309

     negative rho (up, down):  0.000E+00 4.581E-04

     HUBBARD ENERGY =    0.1199  (Ry)

     total cpu time spent up to now is      282.4 secs

     total energy              =   -2160.53716562 Ry
     estimated scf accuracy    <       0.00000003 Ry

     total magnetization       =    12.00 Bohr mag/cell
     absolute magnetization    =    12.05 Bohr mag/cell
[tb_dev] Currently allocated     0.00E+00 Mbytes, locked:    0 /   0
[tb_pin] Currently allocated     0.00E+00 Mbytes, locked:    0 /   0

     iteration #445     ecut=    90.00 Ry     beta= 0.70
     CG style diagonalization

---- Real-time Memory Report at c_bands before calling an iterative solver
         25369 MiB given to the printing process from OS
             0 MiB allocation reported by mallinfo(arena+hblkhd)
        442115 MiB available memory on the node where the printing process lives
     GPU memory used/free/total (MiB): 10302 / 54642 / 64944
------------------
     ethr =  1.22E-11,  avg # of iterations =  3.3

     =================== HUBBARD OCCUPATIONS ===================
     ------------------------ ATOM    2 ------------------------
     Tr[ns(  2)] (up, down, total) =   4.97557  1.19581  6.17138
     Atomic magnetic moment for atom   2 =   3.77976
     SPIN  1
     eigenvalues:
       0.993  0.994  0.994  0.996  0.998
     eigenvectors (columns):
      -0.202  0.422  0.137 -0.861  0.145
      -0.758 -0.268 -0.573 -0.068 -0.141
       0.522  0.292 -0.752 -0.139 -0.238
       0.283 -0.734  0.119 -0.471 -0.381
       0.177 -0.356 -0.270 -0.112  0.870
     occupation matrix ns (before diag.):
       0.995 -0.000  0.000  0.001  0.001
      -0.000  0.994  0.001  0.000 -0.000
       0.000  0.001  0.994  0.000 -0.001
       0.001  0.000  0.000  0.995 -0.001
       0.001 -0.000 -0.001 -0.001  0.997
     SPIN  2
     eigenvalues:
       0.011  0.023  0.084  0.098  0.979
     eigenvectors (columns):
      -0.216  0.800 -0.276  0.331 -0.357
      -0.393  0.228  0.821 -0.304 -0.167
       0.216  0.503 -0.154 -0.617  0.544
       0.026  0.158  0.342  0.641  0.668
      -0.867 -0.172 -0.331 -0.079  0.320
     occupation matrix ns (before diag.):
       0.157  0.035 -0.198 -0.218 -0.108
       0.035  0.096 -0.080 -0.104 -0.070
      -0.198 -0.080  0.335  0.314  0.175
      -0.218 -0.104  0.314  0.488  0.194
      -0.108 -0.070  0.175  0.194  0.119
     ------------------------ ATOM    3 ------------------------
     Tr[ns(  3)] (up, down, total) =   4.97545  1.20450  6.17994
     Atomic magnetic moment for atom   3 =   3.77095
     SPIN  1
     eigenvalues:
       0.992  0.993  0.996  0.996  0.998
     eigenvectors (columns):
       0.226  0.573  0.360  0.467  0.523
      -0.389  0.103 -0.471 -0.359  0.699
       0.863 -0.303 -0.243 -0.168  0.276
      -0.028 -0.022 -0.695  0.708 -0.117
       0.228  0.754 -0.327 -0.352 -0.385
     occupation matrix ns (before diag.):
       0.995  0.001  0.000  0.000 -0.002
       0.001  0.996  0.002 -0.000 -0.000
       0.000  0.002  0.993 -0.000 -0.000
       0.000 -0.000 -0.000  0.996  0.000
      -0.002 -0.000 -0.000  0.000  0.995
     SPIN  2
     eigenvalues:
       0.015  0.024  0.083  0.097  0.985
     eigenvectors (columns):
       0.683  0.526  0.502 -0.062 -0.035
      -0.092 -0.225  0.276 -0.175 -0.913
      -0.221 -0.201  0.441 -0.770  0.352
      -0.246  0.690 -0.459 -0.462 -0.196
      -0.645  0.395  0.516  0.400  0.047
     occupation matrix ns (before diag.):
       0.036  0.040  0.006 -0.003  0.016
       0.040  0.833 -0.292  0.170 -0.039
       0.006 -0.292  0.197 -0.053  0.006
      -0.003  0.170 -0.053  0.088 -0.038
       0.016 -0.039  0.006 -0.038  0.050
     ------------------------ ATOM    4 ------------------------
     Tr[ns(  4)] (up, down, total) =   4.97564  1.20391  6.17955
     Atomic magnetic moment for atom   4 =   3.77172
     SPIN  1
     eigenvalues:
       0.992  0.994  0.996  0.996  0.998
     eigenvectors (columns):
      -0.008  0.351 -0.509 -0.743  0.257
       0.496  0.634 -0.330  0.473 -0.137
       0.157  0.002  0.083 -0.373 -0.911
       0.004  0.582  0.772 -0.201  0.155
       0.854 -0.368  0.169 -0.212  0.249
     occupation matrix ns (before diag.):
       0.996 -0.001 -0.000 -0.000  0.000
      -0.001  0.994 -0.000 -0.001 -0.001
      -0.000 -0.000  0.998 -0.000 -0.001
      -0.000 -0.001 -0.000  0.995  0.000
       0.000 -0.001 -0.001  0.000  0.993
     SPIN  2
     eigenvalues:
       0.015  0.023  0.085  0.096  0.985
     eigenvectors (columns):
      -0.516  0.402  0.076  0.722 -0.214
       0.337 -0.449 -0.027  0.646  0.516
      -0.756 -0.321 -0.293 -0.198  0.448
      -0.178 -0.724  0.308  0.070 -0.587
      -0.131  0.096  0.902 -0.130  0.379
     occupation matrix ns (before diag.):
       0.103 -0.071 -0.107  0.125 -0.081
      -0.071  0.308  0.216 -0.288  0.181
      -0.107  0.216  0.220 -0.260  0.148
       0.125 -0.288 -0.260  0.360 -0.198
      -0.081  0.181  0.148 -0.198  0.213

     Number of occupied Hubbard levels =   18.5309

     negative rho (up, down):  0.000E+00 4.580E-04

     HUBBARD ENERGY =    0.1199  (Ry)

     total cpu time spent up to now is      602.6 secs

     total energy              =   -2160.53716530 Ry
     estimated scf accuracy    <       0.00000003 Ry

     total magnetization       =    12.00 Bohr mag/cell
     absolute magnetization    =    12.05 Bohr mag/cell
[tb_dev] Currently allocated     0.00E+00 Mbytes, locked:    0 /   0
[tb_pin] Currently allocated     0.00E+00 Mbytes, locked:    0 /   0

     iteration #446     ecut=    90.00 Ry     beta= 0.70
     CG style diagonalization

---- Real-time Memory Report at c_bands before calling an iterative solver
         25370 MiB given to the printing process from OS
             0 MiB allocation reported by mallinfo(arena+hblkhd)
        447044 MiB available memory on the node where the printing process lives
     GPU memory used/free/total (MiB): 10302 / 54642 / 64944
------------------
     ethr =  1.18E-11,  avg # of iterations =  3.7

     =================== HUBBARD OCCUPATIONS ===================
     ------------------------ ATOM    2 ------------------------
     Tr[ns(  2)] (up, down, total) =   4.97557  1.19581  6.17138
     Atomic magnetic moment for atom   2 =   3.77976
     SPIN  1
     eigenvalues:
       0.993  0.994  0.994  0.996  0.998
     eigenvectors (columns):
      -0.201  0.422  0.137 -0.861  0.145
      -0.758 -0.267 -0.573 -0.068 -0.141
       0.523  0.292 -0.752 -0.139 -0.238
       0.282 -0.734  0.118 -0.471 -0.381
       0.177 -0.355 -0.270 -0.112  0.870
     occupation matrix ns (before diag.):
       0.995 -0.000  0.000  0.001  0.001
      -0.000  0.994  0.001  0.000 -0.000
       0.000  0.001  0.994  0.000 -0.001
       0.001  0.000  0.000  0.995 -0.001
       0.001 -0.000 -0.001 -0.001  0.997
     SPIN  2
     eigenvalues:
       0.011  0.023  0.084  0.098  0.979
     eigenvectors (columns):
      -0.216  0.801 -0.276  0.331 -0.357
      -0.392  0.228  0.821 -0.304 -0.167
       0.216  0.503 -0.154 -0.618  0.544
       0.026  0.158  0.342  0.641  0.668
      -0.867 -0.172 -0.331 -0.079  0.320
     occupation matrix ns (before diag.):
       0.157  0.035 -0.198 -0.218 -0.108
       0.035  0.096 -0.080 -0.104 -0.070
      -0.198 -0.080  0.335  0.314  0.175
      -0.218 -0.104  0.314  0.488  0.194
      -0.108 -0.070  0.175  0.194  0.119
     ------------------------ ATOM    3 ------------------------
     Tr[ns(  3)] (up, down, total) =   4.97545  1.20451  6.17996
     Atomic magnetic moment for atom   3 =   3.77094
     SPIN  1
     eigenvalues:
       0.992  0.993  0.996  0.996  0.998
     eigenvectors (columns):
       0.226  0.573  0.359  0.468  0.523
      -0.389  0.103 -0.470 -0.359  0.699
       0.863 -0.303 -0.242 -0.168  0.276
      -0.028 -0.022 -0.697  0.706 -0.118
       0.228  0.754 -0.326 -0.353 -0.385
     occupation matrix ns (before diag.):
       0.995  0.001  0.000  0.000 -0.002
       0.001  0.996  0.002 -0.000 -0.000
       0.000  0.002  0.993 -0.000 -0.000
       0.000 -0.000 -0.000  0.996  0.000
      -0.002 -0.000 -0.000  0.000  0.995
     SPIN  2
     eigenvalues:
       0.015  0.024  0.083  0.097  0.985
     eigenvectors (columns):
       0.683  0.526  0.502 -0.062 -0.036
      -0.093 -0.226  0.276 -0.175 -0.913
      -0.221 -0.201  0.441 -0.770  0.352
      -0.247  0.690 -0.459 -0.462 -0.196
      -0.645  0.395  0.516  0.400  0.048
     occupation matrix ns (before diag.):
       0.036  0.041  0.006 -0.003  0.015
       0.041  0.832 -0.293  0.170 -0.039
       0.006 -0.293  0.198 -0.053  0.006
      -0.003  0.170 -0.053  0.088 -0.038
       0.015 -0.039  0.006 -0.038  0.050
     ------------------------ ATOM    4 ------------------------
     Tr[ns(  4)] (up, down, total) =   4.97564  1.20392  6.17956
     Atomic magnetic moment for atom   4 =   3.77172
     SPIN  1
     eigenvalues:
       0.992  0.994  0.996  0.996  0.998
     eigenvectors (columns):
      -0.008  0.351 -0.510 -0.742  0.257
       0.496  0.634 -0.329  0.474 -0.137
       0.157  0.002  0.083 -0.373 -0.911
       0.004  0.582  0.772 -0.202  0.155
       0.854 -0.369  0.168 -0.212  0.249
     occupation matrix ns (before diag.):
       0.996 -0.001 -0.000 -0.000  0.000
      -0.001  0.994 -0.000 -0.001 -0.001
      -0.000 -0.000  0.998 -0.000 -0.001
      -0.000 -0.001 -0.000  0.995  0.000
       0.000 -0.001 -0.001  0.000  0.993
     SPIN  2
     eigenvalues:
       0.015  0.023  0.085  0.096  0.985
     eigenvectors (columns):
      -0.516  0.402  0.076  0.722 -0.214
       0.337 -0.449 -0.027  0.646  0.516
      -0.756 -0.320 -0.293 -0.198  0.449
      -0.178 -0.725  0.308  0.070 -0.586
      -0.131  0.096  0.902 -0.130  0.379
     occupation matrix ns (before diag.):
       0.103 -0.071 -0.107  0.125 -0.081
      -0.071  0.308  0.216 -0.287  0.181
      -0.107  0.216  0.220 -0.261  0.149
       0.125 -0.287 -0.261  0.360 -0.198
      -0.081  0.181  0.149 -0.198  0.213

     Number of occupied Hubbard levels =   18.5309

     negative rho (up, down):  0.000E+00 4.580E-04

     HUBBARD ENERGY =    0.1199  (Ry)

     total cpu time spent up to now is      968.4 secs

     total energy              =   -2160.53716494 Ry
     estimated scf accuracy    <       0.00000003 Ry

     total magnetization       =    12.00 Bohr mag/cell
     absolute magnetization    =    12.05 Bohr mag/cell
[tb_dev] Currently allocated     0.00E+00 Mbytes, locked:    0 /   0
[tb_pin] Currently allocated     0.00E+00 Mbytes, locked:    0 /   0

     iteration #447     ecut=    90.00 Ry     beta= 0.70
     CG style diagonalization

---- Real-time Memory Report at c_bands before calling an iterative solver
         25381 MiB given to the printing process from OS
             0 MiB allocation reported by mallinfo(arena+hblkhd)
        447023 MiB available memory on the node where the printing process lives
     GPU memory used/free/total (MiB): 10302 / 54642 / 64944
------------------
     ethr =  1.18E-11,  avg # of iterations =  3.8

     =================== HUBBARD OCCUPATIONS ===================
     ------------------------ ATOM    2 ------------------------
     Tr[ns(  2)] (up, down, total) =   4.97557  1.19581  6.17139
     Atomic magnetic moment for atom   2 =   3.77976
     SPIN  1
     eigenvalues:
       0.993  0.994  0.994  0.996  0.998
     eigenvectors (columns):
      -0.201  0.421  0.137 -0.861  0.145
      -0.758 -0.266 -0.574 -0.068 -0.141
       0.523  0.293 -0.752 -0.139 -0.238
       0.282 -0.735  0.118 -0.471 -0.381
       0.177 -0.355 -0.270 -0.112  0.870
     occupation matrix ns (before diag.):
       0.995 -0.000  0.000  0.001  0.001
      -0.000  0.994  0.001  0.000 -0.000
       0.000  0.001  0.994  0.000 -0.001
       0.001  0.000  0.000  0.995 -0.001
       0.001 -0.000 -0.001 -0.001  0.997
     SPIN  2
     eigenvalues:
       0.011  0.023  0.084  0.098  0.979
     eigenvectors (columns):
      -0.216  0.801 -0.276  0.331 -0.357
      -0.392  0.228  0.821 -0.304 -0.167
       0.216  0.502 -0.154 -0.618  0.544
       0.026  0.158  0.342  0.641  0.669
      -0.867 -0.172 -0.331 -0.080  0.320
     occupation matrix ns (before diag.):
       0.157  0.035 -0.198 -0.218 -0.108
       0.035  0.096 -0.080 -0.104 -0.070
      -0.198 -0.080  0.335  0.315  0.175
      -0.218 -0.104  0.315  0.488  0.194
      -0.108 -0.070  0.175  0.194  0.119
     ------------------------ ATOM    3 ------------------------
     Tr[ns(  3)] (up, down, total) =   4.97545  1.20452  6.17997
     Atomic magnetic moment for atom   3 =   3.77093
     SPIN  1
     eigenvalues:
       0.992  0.993  0.996  0.996  0.998
     eigenvectors (columns):
       0.225  0.573  0.358  0.469  0.522
      -0.388  0.103 -0.469 -0.361  0.699
       0.863 -0.304 -0.241 -0.168  0.276
      -0.028 -0.022 -0.699  0.704 -0.118
       0.229  0.754 -0.325 -0.354 -0.385
     occupation matrix ns (before diag.):
       0.995  0.001  0.000  0.000 -0.002
       0.001  0.996  0.002 -0.000 -0.000
       0.000  0.002  0.993 -0.000 -0.000
       0.000 -0.000 -0.000  0.996  0.000
      -0.002 -0.000 -0.000  0.000  0.995
     SPIN  2
     eigenvalues:
       0.015  0.024  0.083  0.097  0.986
     eigenvectors (columns):
       0.683  0.526  0.502 -0.062 -0.037
      -0.094 -0.226  0.276 -0.174 -0.913
      -0.221 -0.200  0.441 -0.769  0.353
      -0.247  0.690 -0.459 -0.462 -0.196
      -0.645  0.395  0.516  0.400  0.048
     occupation matrix ns (before diag.):
       0.036  0.042  0.005 -0.003  0.015
       0.042  0.832 -0.293  0.170 -0.040
       0.005 -0.293  0.198 -0.053  0.006
      -0.003  0.170 -0.053  0.088 -0.038
       0.015 -0.040  0.006 -0.038  0.050
     ------------------------ ATOM    4 ------------------------
     Tr[ns(  4)] (up, down, total) =   4.97564  1.20393  6.17956
     Atomic magnetic moment for atom   4 =   3.77171
     SPIN  1
     eigenvalues:
       0.992  0.994  0.996  0.996  0.998
     eigenvectors (columns):
      -0.008  0.351 -0.511 -0.741  0.257
       0.496  0.634 -0.329  0.474 -0.137
       0.158  0.002  0.082 -0.373 -0.911
       0.004  0.582  0.772 -0.203  0.155
       0.854 -0.369  0.167 -0.212  0.249
     occupation matrix ns (before diag.):
       0.996 -0.001 -0.000 -0.000  0.000
      -0.001  0.994 -0.000 -0.001 -0.001
      -0.000 -0.000  0.998 -0.000 -0.001
      -0.000 -0.001 -0.000  0.995  0.000
       0.000 -0.001 -0.001  0.000  0.993
     SPIN  2
     eigenvalues:
       0.015  0.023  0.085  0.096  0.985
     eigenvectors (columns):
      -0.516  0.401  0.076  0.722 -0.214
       0.338 -0.449 -0.027  0.647  0.516
      -0.755 -0.320 -0.293 -0.198  0.449
      -0.179 -0.725  0.308  0.070 -0.586
      -0.131  0.096  0.902 -0.130  0.379
     occupation matrix ns (before diag.):
       0.103 -0.071 -0.107  0.125 -0.081
      -0.071  0.308  0.216 -0.287  0.181
      -0.107  0.216  0.221 -0.261  0.149
       0.125 -0.287 -0.261  0.359 -0.198
      -0.081  0.181  0.149 -0.198  0.213

     Number of occupied Hubbard levels =   18.5309

     negative rho (up, down):  0.000E+00 4.580E-04

     HUBBARD ENERGY =    0.1199  (Ry)

     total cpu time spent up to now is     1349.4 secs

     total energy              =   -2160.53716563 Ry
     estimated scf accuracy    <       0.00000003 Ry

     total magnetization       =    12.00 Bohr mag/cell
     absolute magnetization    =    12.05 Bohr mag/cell
[tb_dev] Currently allocated     0.00E+00 Mbytes, locked:    0 /   0
[tb_pin] Currently allocated     0.00E+00 Mbytes, locked:    0 /   0

     iteration #448     ecut=    90.00 Ry     beta= 0.70
     CG style diagonalization

---- Real-time Memory Report at c_bands before calling an iterative solver
         25381 MiB given to the printing process from OS
             0 MiB allocation reported by mallinfo(arena+hblkhd)
        447321 MiB available memory on the node where the printing process lives
     GPU memory used/free/total (MiB): 10302 / 54642 / 64944
------------------
     ethr =  1.11E-11,  avg # of iterations =  3.6

     =================== HUBBARD OCCUPATIONS ===================
     ------------------------ ATOM    2 ------------------------
     Tr[ns(  2)] (up, down, total) =   4.97557  1.19581  6.17139
     Atomic magnetic moment for atom   2 =   3.77976
     SPIN  1
     eigenvalues:
       0.993  0.994  0.994  0.996  0.998
     eigenvectors (columns):
      -0.201  0.421  0.137 -0.861  0.145
      -0.758 -0.266 -0.574 -0.068 -0.141
       0.523  0.293 -0.752 -0.139 -0.238
       0.282 -0.735  0.118 -0.471 -0.381
       0.177 -0.355 -0.270 -0.112  0.870
     occupation matrix ns (before diag.):
       0.995 -0.000  0.000  0.001  0.001
      -0.000  0.994  0.001  0.000 -0.000
       0.000  0.001  0.994  0.000 -0.001
       0.001  0.000  0.000  0.995 -0.001
       0.001 -0.000 -0.001 -0.001  0.997
     SPIN  2
     eigenvalues:
       0.011  0.023  0.084  0.098  0.979
     eigenvectors (columns):
      -0.216  0.801 -0.276  0.331 -0.357
      -0.392  0.228  0.821 -0.304 -0.167
       0.216  0.502 -0.154 -0.618  0.544
       0.026  0.158  0.342  0.641  0.669
      -0.867 -0.172 -0.331 -0.080  0.320
     occupation matrix ns (before diag.):
       0.157  0.035 -0.197 -0.218 -0.108
       0.035  0.096 -0.080 -0.104 -0.070
      -0.197 -0.080  0.335  0.315  0.175
      -0.218 -0.104  0.315  0.488  0.194
      -0.108 -0.070  0.175  0.194  0.119
     ------------------------ ATOM    3 ------------------------
     Tr[ns(  3)] (up, down, total) =   4.97545  1.20451  6.17996
     Atomic magnetic moment for atom   3 =   3.77093
     SPIN  1
     eigenvalues:
       0.992  0.993  0.996  0.996  0.998
     eigenvectors (columns):
       0.225  0.573  0.358  0.469  0.523
      -0.388  0.103 -0.469 -0.360  0.699
       0.863 -0.303 -0.241 -0.168  0.276
      -0.028 -0.022 -0.699  0.705 -0.118
       0.229  0.754 -0.325 -0.354 -0.385
     occupation matrix ns (before diag.):
       0.995  0.001  0.000  0.000 -0.002
       0.001  0.996  0.002 -0.000 -0.000
       0.000  0.002  0.993 -0.000 -0.000
       0.000 -0.000 -0.000  0.996  0.000
      -0.002 -0.000 -0.000  0.000  0.995
     SPIN  2
     eigenvalues:
       0.015  0.024  0.083  0.097  0.985
     eigenvectors (columns):
       0.683  0.526  0.502 -0.062 -0.037
      -0.094 -0.226  0.276 -0.174 -0.913
      -0.221 -0.200  0.441 -0.769  0.353
      -0.247  0.690 -0.459 -0.462 -0.196
      -0.645  0.395  0.516  0.400  0.048
     occupation matrix ns (before diag.):
       0.036  0.042  0.005 -0.003  0.015
       0.042  0.832 -0.293  0.170 -0.040
       0.005 -0.293  0.198 -0.053  0.006
      -0.003  0.170 -0.053  0.088 -0.038
       0.015 -0.040  0.006 -0.038  0.050
     ------------------------ ATOM    4 ------------------------
     Tr[ns(  4)] (up, down, total) =   4.97564  1.20393  6.17957
     Atomic magnetic moment for atom   4 =   3.77171
     SPIN  1
     eigenvalues:
       0.992  0.994  0.996  0.996  0.998
     eigenvectors (columns):
      -0.008  0.351 -0.510 -0.742  0.257
       0.497  0.634 -0.329  0.474 -0.136
       0.158  0.002  0.083 -0.373 -0.911
       0.005  0.581  0.773 -0.202  0.155
       0.853 -0.370  0.167 -0.213  0.249
     occupation matrix ns (before diag.):
       0.996 -0.001 -0.000 -0.000  0.000
      -0.001  0.994 -0.000 -0.001 -0.001
      -0.000 -0.000  0.998 -0.000 -0.001
      -0.000 -0.001 -0.000  0.995  0.000
       0.000 -0.001 -0.001  0.000  0.993
     SPIN  2
     eigenvalues:
       0.015  0.023  0.085  0.096  0.985
     eigenvectors (columns):
      -0.516  0.401  0.075  0.722 -0.214
       0.337 -0.448 -0.027  0.647  0.516
      -0.756 -0.320 -0.293 -0.198  0.449
      -0.178 -0.725  0.308  0.070 -0.585
      -0.131  0.097  0.902 -0.129  0.379
     occupation matrix ns (before diag.):
       0.103 -0.071 -0.108  0.125 -0.081
      -0.071  0.309  0.216 -0.287  0.181
      -0.108  0.216  0.220 -0.260  0.149
       0.125 -0.287 -0.260  0.359 -0.197
      -0.081  0.181  0.149 -0.197  0.212

     Number of occupied Hubbard levels =   18.5309

     negative rho (up, down):  0.000E+00 4.579E-04

     HUBBARD ENERGY =    0.1199  (Ry)

     total cpu time spent up to now is     1704.7 secs

     total energy              =   -2160.53716592 Ry
     estimated scf accuracy    <       0.00000002 Ry

     total magnetization       =    12.00 Bohr mag/cell
     absolute magnetization    =    12.05 Bohr mag/cell
[tb_dev] Currently allocated     0.00E+00 Mbytes, locked:    0 /   0
[tb_pin] Currently allocated     0.00E+00 Mbytes, locked:    0 /   0

     iteration #449     ecut=    90.00 Ry     beta= 0.70
     CG style diagonalization

---- Real-time Memory Report at c_bands before calling an iterative solver
         25381 MiB given to the printing process from OS
             0 MiB allocation reported by mallinfo(arena+hblkhd)
        446726 MiB available memory on the node where the printing process lives
     GPU memory used/free/total (MiB): 10302 / 54642 / 64944
------------------
     ethr =  1.06E-11,  avg # of iterations =  3.5

     =================== HUBBARD OCCUPATIONS ===================
     ------------------------ ATOM    2 ------------------------
     Tr[ns(  2)] (up, down, total) =   4.97557  1.19581  6.17139
     Atomic magnetic moment for atom   2 =   3.77976
     SPIN  1
     eigenvalues:
       0.993  0.994  0.994  0.996  0.998
     eigenvectors (columns):
      -0.201  0.421  0.137 -0.862  0.145
      -0.758 -0.266 -0.574 -0.068 -0.141
       0.523  0.293 -0.751 -0.139 -0.238
       0.282 -0.735  0.118 -0.471 -0.381
       0.177 -0.355 -0.271 -0.112  0.870
     occupation matrix ns (before diag.):
       0.995 -0.000  0.000  0.001  0.001
      -0.000  0.994  0.001  0.000 -0.000
       0.000  0.001  0.994  0.000 -0.001
       0.001  0.000  0.000  0.995 -0.001
       0.001 -0.000 -0.001 -0.001  0.997
     SPIN  2
     eigenvalues:
       0.011  0.023  0.084  0.098  0.979
     eigenvectors (columns):
      -0.216  0.801 -0.276  0.331 -0.357
      -0.392  0.228  0.821 -0.304 -0.167
       0.216  0.502 -0.154 -0.618  0.544
       0.026  0.158  0.342  0.641  0.669
      -0.867 -0.173 -0.331 -0.080  0.320
     occupation matrix ns (before diag.):
       0.157  0.035 -0.197 -0.218 -0.107
       0.035  0.096 -0.080 -0.104 -0.070
      -0.197 -0.080  0.335  0.315  0.175
      -0.218 -0.104  0.315  0.488  0.194
      -0.107 -0.070  0.175  0.194  0.119
     ------------------------ ATOM    3 ------------------------
     Tr[ns(  3)] (up, down, total) =   4.97545  1.20452  6.17997
     Atomic magnetic moment for atom   3 =   3.77093
     SPIN  1
     eigenvalues:
       0.992  0.993  0.996  0.996  0.998
     eigenvectors (columns):
       0.225  0.573  0.357  0.470  0.522
      -0.388  0.103 -0.469 -0.361  0.699
       0.863 -0.304 -0.241 -0.168  0.276
      -0.028 -0.022 -0.700  0.704 -0.118
       0.229  0.754 -0.324 -0.355 -0.385
     occupation matrix ns (before diag.):
       0.995  0.001  0.000  0.000 -0.002
       0.001  0.996  0.002 -0.000 -0.000
       0.000  0.002  0.993 -0.000 -0.000
       0.000 -0.000 -0.000  0.996  0.000
      -0.002 -0.000 -0.000  0.000  0.995
     SPIN  2
     eigenvalues:
       0.015  0.024  0.083  0.097  0.986
     eigenvectors (columns):
       0.683  0.527  0.502 -0.062 -0.038
      -0.095 -0.226  0.276 -0.174 -0.913
      -0.220 -0.200  0.442 -0.769  0.353
      -0.247  0.690 -0.459 -0.462 -0.196
      -0.645  0.395  0.516  0.401  0.048
     occupation matrix ns (before diag.):
       0.036  0.043  0.005 -0.003  0.015
       0.043  0.832 -0.293  0.170 -0.040
       0.005 -0.293  0.198 -0.053  0.006
      -0.003  0.170 -0.053  0.088 -0.038
       0.015 -0.040  0.006 -0.038  0.050
     ------------------------ ATOM    4 ------------------------
     Tr[ns(  4)] (up, down, total) =   4.97564  1.20393  6.17957
     Atomic magnetic moment for atom   4 =   3.77171
     SPIN  1
     eigenvalues:
       0.992  0.994  0.996  0.996  0.998
     eigenvectors (columns):
      -0.008  0.351 -0.510 -0.742  0.257
       0.497  0.634 -0.328  0.474 -0.136
       0.158  0.002  0.083 -0.373 -0.911
       0.005  0.581  0.773 -0.202  0.155
       0.853 -0.370  0.167 -0.213  0.249
     occupation matrix ns (before diag.):
       0.996 -0.001 -0.000 -0.000  0.000
      -0.001  0.994 -0.000 -0.001 -0.001
      -0.000 -0.000  0.998 -0.000 -0.001
      -0.000 -0.001 -0.000  0.995  0.000
       0.000 -0.001 -0.001  0.000  0.993
     SPIN  2
     eigenvalues:
       0.015  0.023  0.085  0.096  0.985
     eigenvectors (columns):
      -0.516  0.401  0.075  0.722 -0.214
       0.338 -0.448 -0.027  0.647  0.516
      -0.755 -0.320 -0.293 -0.198  0.449
      -0.178 -0.726  0.308  0.070 -0.585
      -0.131  0.097  0.902 -0.129  0.379
     occupation matrix ns (before diag.):
       0.103 -0.071 -0.108  0.125 -0.081
      -0.071  0.309  0.217 -0.287  0.181
      -0.108  0.217  0.221 -0.260  0.149
       0.125 -0.287 -0.260  0.358 -0.197
      -0.081  0.181  0.149 -0.197  0.212

     Number of occupied Hubbard levels =   18.5309

     negative rho (up, down):  0.000E+00 4.579E-04

     HUBBARD ENERGY =    0.1199  (Ry)

     total cpu time spent up to now is     2046.2 secs

     total energy              =   -2160.53716598 Ry
     estimated scf accuracy    <       0.00000002 Ry

     total magnetization       =    12.00 Bohr mag/cell
     absolute magnetization    =    12.05 Bohr mag/cell
[tb_dev] Currently allocated     0.00E+00 Mbytes, locked:    0 /   0
[tb_pin] Currently allocated     0.00E+00 Mbytes, locked:    0 /   0

     iteration #450     ecut=    90.00 Ry     beta= 0.70
     CG style diagonalization

---- Real-time Memory Report at c_bands before calling an iterative solver
         25381 MiB given to the printing process from OS
             0 MiB allocation reported by mallinfo(arena+hblkhd)
        447349 MiB available memory on the node where the printing process lives
     GPU memory used/free/total (MiB): 10302 / 54642 / 64944
------------------
     ethr =  1.05E-11,  avg # of iterations =  3.5

     =================== HUBBARD OCCUPATIONS ===================
     ------------------------ ATOM    2 ------------------------
     Tr[ns(  2)] (up, down, total) =   4.97557  1.19581  6.17139
     Atomic magnetic moment for atom   2 =   3.77976
     SPIN  1
     eigenvalues:
       0.993  0.994  0.994  0.996  0.998
     eigenvectors (columns):
      -0.201  0.421  0.137 -0.862  0.145
      -0.758 -0.265 -0.574 -0.068 -0.142
       0.523  0.293 -0.751 -0.139 -0.238
       0.282 -0.735  0.117 -0.471 -0.381
       0.177 -0.355 -0.271 -0.112  0.870
     occupation matrix ns (before diag.):
       0.995 -0.000  0.000  0.001  0.001
      -0.000  0.994  0.001  0.000 -0.000
       0.000  0.001  0.994  0.000 -0.001
       0.001  0.000  0.000  0.995 -0.001
       0.001 -0.000 -0.001 -0.001  0.997
     SPIN  2
     eigenvalues:
       0.011  0.023  0.084  0.098  0.979
     eigenvectors (columns):
      -0.216  0.801 -0.276  0.331 -0.356
      -0.392  0.228  0.821 -0.304 -0.167
       0.216  0.502 -0.154 -0.618  0.544
       0.025  0.158  0.342  0.641  0.669
      -0.867 -0.173 -0.331 -0.080  0.319
     occupation matrix ns (before diag.):
       0.157  0.035 -0.197 -0.218 -0.107
       0.035  0.096 -0.080 -0.104 -0.070
      -0.197 -0.080  0.335  0.315  0.175
      -0.218 -0.104  0.315  0.488  0.194
      -0.107 -0.070  0.175  0.194  0.119
     ------------------------ ATOM    3 ------------------------
     Tr[ns(  3)] (up, down, total) =   4.97545  1.20452  6.17997
     Atomic magnetic moment for atom   3 =   3.77093
     SPIN  1
     eigenvalues:
       0.992  0.993  0.996  0.996  0.998
     eigenvectors (columns):
       0.225  0.573  0.357  0.470  0.522
      -0.388  0.103 -0.468 -0.361  0.699
       0.863 -0.303 -0.241 -0.168  0.276
      -0.028 -0.022 -0.700  0.703 -0.118
       0.229  0.754 -0.324 -0.355 -0.385
     occupation matrix ns (before diag.):
       0.995  0.001  0.000  0.000 -0.002
       0.001  0.996  0.002 -0.000 -0.000
       0.000  0.002  0.993 -0.000 -0.000
       0.000 -0.000 -0.000  0.996  0.000
      -0.002 -0.000 -0.000  0.000  0.995
     SPIN  2
     eigenvalues:
       0.015  0.024  0.083  0.097  0.986
     eigenvectors (columns):
       0.682  0.527  0.502 -0.062 -0.038
      -0.095 -0.226  0.276 -0.174 -0.913
      -0.220 -0.200  0.442 -0.769  0.353
      -0.247  0.690 -0.459 -0.462 -0.196
      -0.645  0.395  0.516  0.401  0.049
     occupation matrix ns (before diag.):
       0.036  0.043  0.005 -0.003  0.015
       0.043  0.832 -0.293  0.170 -0.040
       0.005 -0.293  0.198 -0.053  0.006
      -0.003  0.170 -0.053  0.088 -0.038
       0.015 -0.040  0.006 -0.038  0.050
     ------------------------ ATOM    4 ------------------------
     Tr[ns(  4)] (up, down, total) =   4.97564  1.20393  6.17957
     Atomic magnetic moment for atom   4 =   3.77171
     SPIN  1
     eigenvalues:
       0.992  0.994  0.996  0.996  0.998
     eigenvectors (columns):
      -0.008  0.352 -0.509 -0.742  0.257
       0.498  0.634 -0.328  0.473 -0.136
       0.158  0.002  0.083 -0.373 -0.911
       0.005  0.580  0.773 -0.202  0.156
       0.853 -0.371  0.167 -0.213  0.249
     occupation matrix ns (before diag.):
       0.996 -0.001 -0.000 -0.000  0.000
      -0.001  0.994 -0.000 -0.001 -0.001
      -0.000 -0.000  0.998 -0.000 -0.001
      -0.000 -0.001 -0.000  0.995  0.000
       0.000 -0.001 -0.001  0.000  0.993
     SPIN  2
     eigenvalues:
       0.015  0.023  0.085  0.096  0.985
     eigenvectors (columns):
      -0.516  0.401  0.075  0.722 -0.215
       0.337 -0.448 -0.027  0.647  0.517
      -0.756 -0.320 -0.292 -0.198  0.449
      -0.178 -0.726  0.308  0.070 -0.584
      -0.131  0.098  0.902 -0.129  0.379
     occupation matrix ns (before diag.):
       0.104 -0.072 -0.108  0.125 -0.082
      -0.072  0.310  0.217 -0.287  0.181
      -0.108  0.217  0.221 -0.260  0.149
       0.125 -0.287 -0.260  0.358 -0.197
      -0.082  0.181  0.149 -0.197  0.212

     Number of occupied Hubbard levels =   18.5309

     negative rho (up, down):  0.000E+00 4.578E-04

     HUBBARD ENERGY =    0.1199  (Ry)

     total cpu time spent up to now is     2392.6 secs

     total energy              =   -2160.53716170 Ry
     estimated scf accuracy    <       0.00000002 Ry

     total magnetization       =    12.00 Bohr mag/cell
     absolute magnetization    =    12.05 Bohr mag/cell
[tb_dev] Currently allocated     0.00E+00 Mbytes, locked:    0 /   0
[tb_pin] Currently allocated     0.00E+00 Mbytes, locked:    0 /   0

     iteration #451     ecut=    90.00 Ry     beta= 0.70
     CG style diagonalization

---- Real-time Memory Report at c_bands before calling an iterative solver
         25381 MiB given to the printing process from OS
             0 MiB allocation reported by mallinfo(arena+hblkhd)
        448015 MiB available memory on the node where the printing process lives
     GPU memory used/free/total (MiB): 10302 / 54642 / 64944
------------------
     ethr =  1.00E-11,  avg # of iterations =  4.4

     =================== HUBBARD OCCUPATIONS ===================
     ------------------------ ATOM    2 ------------------------
     Tr[ns(  2)] (up, down, total) =   4.97557  1.19582  6.17139
     Atomic magnetic moment for atom   2 =   3.77976
     SPIN  1
     eigenvalues:
       0.993  0.994  0.994  0.996  0.998
     eigenvectors (columns):
      -0.201  0.421  0.138 -0.861  0.145
      -0.758 -0.265 -0.574 -0.068 -0.142
       0.523  0.294 -0.751 -0.139 -0.238
       0.282 -0.735  0.117 -0.471 -0.381
       0.177 -0.355 -0.271 -0.112  0.870
     occupation matrix ns (before diag.):
       0.995 -0.000  0.000  0.001  0.001
      -0.000  0.994  0.001  0.000 -0.000
       0.000  0.001  0.994  0.000 -0.001
       0.001  0.000  0.000  0.995 -0.001
       0.001 -0.000 -0.001 -0.001  0.997
     SPIN  2
     eigenvalues:
       0.011  0.023  0.084  0.098  0.979
     eigenvectors (columns):
      -0.216  0.801 -0.276  0.331 -0.357
      -0.392  0.228  0.821 -0.304 -0.167
       0.216  0.502 -0.154 -0.618  0.544
       0.025  0.158  0.342  0.641  0.669
      -0.867 -0.173 -0.331 -0.080  0.319
     occupation matrix ns (before diag.):
       0.157  0.035 -0.198 -0.218 -0.107
       0.035  0.096 -0.080 -0.104 -0.070
      -0.198 -0.080  0.335  0.315  0.175
      -0.218 -0.104  0.315  0.488  0.194
      -0.107 -0.070  0.175  0.194  0.119
     ------------------------ ATOM    3 ------------------------
     Tr[ns(  3)] (up, down, total) =   4.97545  1.20452  6.17996
     Atomic magnetic moment for atom   3 =   3.77093
     SPIN  1
     eigenvalues:
       0.992  0.993  0.996  0.996  0.998
     eigenvectors (columns):
       0.225  0.573  0.357  0.470  0.522
      -0.388  0.103 -0.469 -0.361  0.699
       0.864 -0.303 -0.241 -0.168  0.276
      -0.028 -0.022 -0.700  0.704 -0.118
       0.228  0.754 -0.324 -0.355 -0.385
     occupation matrix ns (before diag.):
       0.995  0.001  0.000  0.000 -0.002
       0.001  0.996  0.002 -0.000 -0.000
       0.000  0.002  0.993 -0.000 -0.000
       0.000 -0.000 -0.000  0.996  0.000
      -0.002 -0.000 -0.000  0.000  0.995
     SPIN  2
     eigenvalues:
       0.015  0.024  0.083  0.097  0.986
     eigenvectors (columns):
       0.682  0.527  0.502 -0.062 -0.038
      -0.094 -0.227  0.276 -0.174 -0.913
      -0.221 -0.200  0.442 -0.769  0.353
      -0.247  0.690 -0.459 -0.462 -0.196
      -0.645  0.395  0.516  0.401  0.048
     occupation matrix ns (before diag.):
       0.036  0.043  0.005 -0.003  0.015
       0.043  0.832 -0.293  0.171 -0.040
       0.005 -0.293  0.198 -0.053  0.006
      -0.003  0.171 -0.053  0.088 -0.038
       0.015 -0.040  0.006 -0.038  0.050
     ------------------------ ATOM    4 ------------------------
     Tr[ns(  4)] (up, down, total) =   4.97564  1.20393  6.17958
     Atomic magnetic moment for atom   4 =   3.77171
     SPIN  1
     eigenvalues:
       0.992  0.994  0.996  0.996  0.998
     eigenvectors (columns):
      -0.008  0.353 -0.506 -0.744  0.256
       0.499  0.634 -0.328  0.472 -0.135
       0.157  0.002  0.085 -0.372 -0.911
       0.006  0.578  0.775 -0.199  0.156
       0.852 -0.373  0.166 -0.214  0.249
     occupation matrix ns (before diag.):
       0.996 -0.001 -0.000 -0.000  0.000
      -0.001  0.994 -0.000 -0.001 -0.001
      -0.000 -0.000  0.998 -0.000 -0.001
      -0.000 -0.001 -0.000  0.995  0.000
       0.000 -0.001 -0.001  0.000  0.993
     SPIN  2
     eigenvalues:
       0.015  0.023  0.085  0.096  0.985
     eigenvectors (columns):
      -0.516  0.400  0.073  0.722 -0.217
       0.337 -0.446 -0.029  0.647  0.519
      -0.756 -0.319 -0.292 -0.199  0.449
      -0.176 -0.728  0.308  0.071 -0.582
      -0.132  0.099  0.902 -0.126  0.378
     occupation matrix ns (before diag.):
       0.105 -0.073 -0.109  0.126 -0.082
      -0.073  0.312  0.217 -0.287  0.182
      -0.109  0.217  0.220 -0.259  0.148
       0.126 -0.287 -0.259  0.356 -0.196
      -0.082  0.182  0.148 -0.196  0.212

     Number of occupied Hubbard levels =   18.5309

     negative rho (up, down):  0.000E+00 4.577E-04

     HUBBARD ENERGY =    0.1199  (Ry)

     total cpu time spent up to now is     2847.5 secs

     total energy              =   -2160.53716423 Ry
     estimated scf accuracy    <       0.00000002 Ry

     total magnetization       =    12.00 Bohr mag/cell
     absolute magnetization    =    12.05 Bohr mag/cell
[tb_dev] Currently allocated     0.00E+00 Mbytes, locked:    0 /   0
[tb_pin] Currently allocated     0.00E+00 Mbytes, locked:    0 /   0

     iteration #452     ecut=    90.00 Ry     beta= 0.70
     CG style diagonalization

---- Real-time Memory Report at c_bands before calling an iterative solver
[...]

---- Real-time Memory Report at c_bands before calling an iterative solver
         25387 MiB given to the printing process from OS
             0 MiB allocation reported by mallinfo(arena+hblkhd)
        448331 MiB available memory on the node where the printing process lives
     GPU memory used/free/total (MiB): 13260 / 51684 / 64944
------------------
     ethr =  4.32E-12,  avg # of iterations =  3.9

     =================== HUBBARD OCCUPATIONS ===================
     ------------------------ ATOM    2 ------------------------
     Tr[ns(  2)] (up, down, total) =   4.97589  1.19847  6.17437
     Atomic magnetic moment for atom   2 =   3.77742
     SPIN  1
     eigenvalues:
       0.993  0.994  0.994  0.996  0.998
     eigenvectors (columns):
      -0.303  0.410  0.096 -0.843  0.144
      -0.589 -0.438 -0.658 -0.099 -0.135
       0.552  0.388 -0.681 -0.130 -0.252
       0.409 -0.631  0.207 -0.495 -0.383
       0.299 -0.302 -0.225 -0.132  0.867
     occupation matrix ns (before diag.):
       0.995 -0.000  0.000  0.001  0.001
      -0.000  0.994  0.000  0.000 -0.000
       0.000  0.000  0.994  0.000 -0.001
       0.001  0.000  0.000  0.995 -0.001
       0.001 -0.000 -0.001 -0.001  0.997
     SPIN  2
     eigenvalues:
       0.012  0.023  0.085  0.100  0.979
     eigenvectors (columns):
      -0.219  0.795 -0.273  0.337 -0.362
      -0.405  0.229  0.809 -0.321 -0.163
       0.229  0.509 -0.165 -0.613  0.534
       0.034  0.166  0.356  0.634  0.665
      -0.857 -0.169 -0.342 -0.073  0.338
     occupation matrix ns (before diag.):
       0.161  0.034 -0.197 -0.220 -0.115
       0.034  0.095 -0.075 -0.101 -0.072
      -0.197 -0.075  0.326  0.306  0.182
      -0.220 -0.101  0.306  0.485  0.204
      -0.115 -0.072  0.182  0.204  0.132
     ------------------------ ATOM    3 ------------------------
     Tr[ns(  3)] (up, down, total) =   4.97568  1.20770  6.18338
     Atomic magnetic moment for atom   3 =   3.76798
     SPIN  1
     eigenvalues:
       0.993  0.993  0.996  0.996  0.998
     eigenvectors (columns):
      -0.179  0.579  0.399  0.457 -0.514
       0.403  0.098 -0.469 -0.343 -0.700
      -0.887 -0.189 -0.275 -0.170 -0.269
       0.032  0.016 -0.680  0.723  0.121
      -0.132  0.787 -0.288 -0.349  0.398
     occupation matrix ns (before diag.):
       0.996  0.001  0.000  0.000 -0.002
       0.001  0.996  0.002 -0.000 -0.001
       0.000  0.002  0.993 -0.000 -0.000
       0.000 -0.000 -0.000  0.996 -0.000
      -0.002 -0.001 -0.000 -0.000  0.995
     SPIN  2
     eigenvalues:
       0.016  0.024  0.083  0.099  0.986
     eigenvectors (columns):
       0.668  0.542  0.502 -0.081 -0.029
      -0.064 -0.248  0.272 -0.185 -0.909
      -0.230 -0.198  0.414 -0.782  0.353
      -0.256  0.678 -0.476 -0.447 -0.219
      -0.657  0.381  0.525  0.384  0.021
     occupation matrix ns (before diag.):
       0.037  0.034  0.009 -0.004  0.016
       0.034  0.825 -0.291  0.189 -0.016
       0.009 -0.291  0.200 -0.060 -0.003
      -0.004  0.189 -0.060  0.098 -0.034
       0.016 -0.016 -0.003 -0.034  0.048
     ------------------------ ATOM    4 ------------------------
     Tr[ns(  4)] (up, down, total) =   4.97601  1.20641  6.18243
     Atomic magnetic moment for atom   4 =   3.76960
     SPIN  1
     eigenvalues:
       0.993  0.994  0.996  0.996  0.998
     eigenvectors (columns):
      -0.002  0.333 -0.409 -0.814  0.243
       0.551  0.612 -0.380  0.398 -0.140
       0.141 -0.019  0.141 -0.352 -0.914
       0.037  0.573  0.794 -0.117  0.162
       0.822 -0.432  0.194 -0.203  0.244
     occupation matrix ns (before diag.):
       0.996 -0.001 -0.000 -0.000  0.000
      -0.001  0.994  0.000 -0.001 -0.001
      -0.000  0.000  0.998 -0.000 -0.001
      -0.000 -0.001 -0.000  0.995  0.000
       0.000 -0.001 -0.001  0.000  0.993
     SPIN  2
     eigenvalues:
       0.015  0.024  0.086  0.096  0.986
     eigenvectors (columns):
       0.514 -0.393  0.021  0.722 -0.244
      -0.319  0.428 -0.067  0.645  0.543
       0.766  0.310 -0.279 -0.222  0.436
       0.159  0.743  0.309  0.092 -0.564
       0.146 -0.118  0.907 -0.069  0.372
     occupation matrix ns (before diag.):
       0.116 -0.092 -0.118  0.137 -0.090
      -0.092  0.337  0.220 -0.291  0.188
      -0.118  0.220  0.209 -0.244  0.140
       0.137 -0.291 -0.244  0.336 -0.185
      -0.090  0.188  0.140 -0.185  0.208

     Number of occupied Hubbard levels =   18.5402

     negative rho (up, down):  0.000E+00 4.548E-04

     HUBBARD ENERGY =    0.1208  (Ry)

     total cpu time spent up to now is    74620.0 secs

     total energy              =   -2160.54190774 Ry
     estimated scf accuracy    <       0.00000001 Ry

     total magnetization       =    12.00 Bohr mag/cell
     absolute magnetization    =    12.04 Bohr mag/cell
[tb_dev] Currently allocated     0.00E+00 Mbytes, locked:    0 /   0
[tb_pin] Currently allocated     0.00E+00 Mbytes, locked:    0 /   0

     iteration # 87     ecut=    90.00 Ry     beta= 0.70
     CG style diagonalization

---- Real-time Memory Report at c_bands before calling an iterative solver
         25387 MiB given to the printing process from OS
             0 MiB allocation reported by mallinfo(arena+hblkhd)
        448330 MiB available memory on the node where the printing process lives
     GPU memory used/free/total (MiB): 13260 / 51684 / 64944
------------------
     ethr =  4.32E-12,  avg # of iterations =  3.8

     =================== HUBBARD OCCUPATIONS ===================
     ------------------------ ATOM    2 ------------------------
     Tr[ns(  2)] (up, down, total) =   4.97589  1.19847  6.17437
     Atomic magnetic moment for atom   2 =   3.77742
     SPIN  1
     eigenvalues:
       0.993  0.994  0.994  0.996  0.998
     eigenvectors (columns):
      -0.302  0.410  0.094 -0.843  0.144
      -0.588 -0.439 -0.658 -0.099 -0.135
       0.553  0.386 -0.682 -0.129 -0.252
       0.408 -0.631  0.209 -0.495 -0.383
       0.300 -0.303 -0.223 -0.132  0.867
     occupation matrix ns (before diag.):
       0.995 -0.000  0.000  0.001  0.001
      -0.000  0.994  0.000  0.000 -0.000
       0.000  0.000  0.994  0.000 -0.001
       0.001  0.000  0.000  0.995 -0.001
       0.001 -0.000 -0.001 -0.001  0.997
     SPIN  2
     eigenvalues:
       0.012  0.023  0.085  0.100  0.979
     eigenvectors (columns):
      -0.219  0.795 -0.273  0.338 -0.361
      -0.405  0.229  0.808 -0.322 -0.163
       0.229  0.509 -0.166 -0.613  0.534
       0.034  0.165  0.357  0.634  0.665
      -0.857 -0.169 -0.342 -0.073  0.339
     occupation matrix ns (before diag.):
       0.161  0.033 -0.197 -0.219 -0.115
       0.033  0.095 -0.075 -0.101 -0.072
      -0.197 -0.075  0.326  0.306  0.182
      -0.219 -0.101  0.306  0.485  0.205
      -0.115 -0.072  0.182  0.205  0.132
     ------------------------ ATOM    3 ------------------------
     Tr[ns(  3)] (up, down, total) =   4.97568  1.20770  6.18338
     Atomic magnetic moment for atom   3 =   3.76798
     SPIN  1
     eigenvalues:
       0.993  0.993  0.996  0.996  0.998
     eigenvectors (columns):
      -0.179  0.579  0.399  0.457 -0.514
       0.403  0.098 -0.469 -0.344 -0.700
      -0.887 -0.189 -0.275 -0.170 -0.269
       0.032  0.016 -0.680  0.722  0.121
      -0.132  0.787 -0.288 -0.349  0.398
     occupation matrix ns (before diag.):
       0.996  0.001  0.000  0.000 -0.002
       0.001  0.996  0.002 -0.000 -0.001
       0.000  0.002  0.993 -0.000 -0.000
       0.000 -0.000 -0.000  0.996 -0.000
      -0.002 -0.001 -0.000 -0.000  0.995
     SPIN  2
     eigenvalues:
       0.016  0.024  0.083  0.099  0.986
     eigenvectors (columns):
       0.668  0.542  0.502 -0.081 -0.029
      -0.064 -0.248  0.272 -0.185 -0.909
      -0.229 -0.198  0.414 -0.782  0.353
      -0.256  0.678 -0.476 -0.447 -0.219
      -0.657  0.381  0.525  0.384  0.022
     occupation matrix ns (before diag.):
       0.037  0.035  0.009 -0.004  0.016
       0.035  0.825 -0.291  0.189 -0.016
       0.009 -0.291  0.200 -0.060 -0.003
      -0.004  0.189 -0.060  0.098 -0.034
       0.016 -0.016 -0.003 -0.034  0.048
     ------------------------ ATOM    4 ------------------------
     Tr[ns(  4)] (up, down, total) =   4.97601  1.20641  6.18243
     Atomic magnetic moment for atom   4 =   3.76960
     SPIN  1
     eigenvalues:
       0.993  0.994  0.996  0.996  0.998
     eigenvectors (columns):
      -0.002  0.333 -0.409 -0.814  0.243
       0.551  0.612 -0.379  0.398 -0.140
       0.141 -0.019  0.141 -0.352 -0.914
       0.037  0.572  0.795 -0.117  0.162
       0.822 -0.432  0.194 -0.203  0.244
     occupation matrix ns (before diag.):
       0.996 -0.001 -0.000 -0.000  0.000
      -0.001  0.994  0.000 -0.001 -0.001
      -0.000  0.000  0.998 -0.000 -0.001
      -0.000 -0.001 -0.000  0.995  0.000
       0.000 -0.001 -0.001  0.000  0.993
     SPIN  2
     eigenvalues:
       0.015  0.024  0.086  0.096  0.986
     eigenvectors (columns):
       0.514 -0.393  0.020  0.722 -0.244
      -0.319  0.427 -0.067  0.645  0.543
       0.766  0.310 -0.279 -0.222  0.436
       0.159  0.744  0.309  0.092 -0.564
       0.146 -0.118  0.907 -0.069  0.372
     occupation matrix ns (before diag.):
       0.116 -0.092 -0.118  0.137 -0.090
      -0.092  0.337  0.221 -0.291  0.188
      -0.118  0.221  0.210 -0.244  0.140
       0.137 -0.291 -0.244  0.336 -0.185
      -0.090  0.188  0.140 -0.185  0.208

     Number of occupied Hubbard levels =   18.5402

     negative rho (up, down):  0.000E+00 4.548E-04

     HUBBARD ENERGY =    0.1208  (Ry)

     total cpu time spent up to now is    74998.9 secs

     total energy              =   -2160.54190812 Ry
     estimated scf accuracy    <       0.00000001 Ry

     total magnetization       =    12.00 Bohr mag/cell
     absolute magnetization    =    12.04 Bohr mag/cell
[tb_dev] Currently allocated     0.00E+00 Mbytes, locked:    0 /   0
[tb_pin] Currently allocated     0.00E+00 Mbytes, locked:    0 /   0

     iteration # 88     ecut=    90.00 Ry     beta= 0.70
     CG style diagonalization

---- Real-time Memory Report at c_bands before calling an iterative solver
         25387 MiB given to the printing process from OS
             0 MiB allocation reported by mallinfo(arena+hblkhd)
        458234 MiB available memory on the node where the printing process lives
     GPU memory used/free/total (MiB): 13260 / 51684 / 64944
------------------
     ethr =  4.32E-12,  avg # of iterations =  3.5

     =================== HUBBARD OCCUPATIONS ===================
     ------------------------ ATOM    2 ------------------------
     Tr[ns(  2)] (up, down, total) =   4.97589  1.19847  6.17436
     Atomic magnetic moment for atom   2 =   3.77742
     SPIN  1
     eigenvalues:
       0.993  0.994  0.994  0.996  0.998
     eigenvectors (columns):
      -0.302  0.410  0.093 -0.843  0.144
      -0.588 -0.440 -0.658 -0.099 -0.135
       0.554  0.386 -0.682 -0.129 -0.252
       0.408 -0.631  0.210 -0.495 -0.383
       0.300 -0.303 -0.223 -0.132  0.867
     occupation matrix ns (before diag.):
       0.995 -0.000  0.000  0.001  0.001
      -0.000  0.994  0.000  0.000 -0.000
       0.000  0.000  0.994  0.000 -0.001
       0.001  0.000  0.000  0.995 -0.001
       0.001 -0.000 -0.001 -0.001  0.997
     SPIN  2
     eigenvalues:
       0.012  0.023  0.085  0.100  0.979
     eigenvectors (columns):
      -0.219  0.795 -0.273  0.338 -0.361
      -0.405  0.229  0.808 -0.322 -0.162
       0.229  0.509 -0.166 -0.613  0.534
       0.035  0.165  0.357  0.634  0.665
      -0.857 -0.169 -0.342 -0.072  0.339
     occupation matrix ns (before diag.):
       0.161  0.033 -0.197 -0.219 -0.115
       0.033  0.095 -0.075 -0.101 -0.072
      -0.197 -0.075  0.326  0.306  0.182
      -0.219 -0.101  0.306  0.485  0.205
      -0.115 -0.072  0.182  0.205  0.132
     ------------------------ ATOM    3 ------------------------
     Tr[ns(  3)] (up, down, total) =   4.97568  1.20770  6.18338
     Atomic magnetic moment for atom   3 =   3.76798
     SPIN  1
     eigenvalues:
       0.993  0.993  0.996  0.996  0.998
     eigenvectors (columns):
      -0.179  0.579  0.399  0.458 -0.514
       0.403  0.098 -0.469 -0.344 -0.700
      -0.887 -0.189 -0.275 -0.170 -0.269
       0.032  0.016 -0.680  0.722  0.121
      -0.132  0.787 -0.287 -0.350  0.398
     occupation matrix ns (before diag.):
       0.996  0.001  0.000  0.000 -0.002
       0.001  0.996  0.002 -0.000 -0.001
       0.000  0.002  0.993 -0.000 -0.000
       0.000 -0.000 -0.000  0.996 -0.000
      -0.002 -0.001 -0.000 -0.000  0.995
     SPIN  2
     eigenvalues:
       0.016  0.024  0.083  0.099  0.986
     eigenvectors (columns):
       0.668  0.542  0.502 -0.081 -0.029
      -0.064 -0.248  0.272 -0.185 -0.909
      -0.229 -0.198  0.414 -0.782  0.353
      -0.256  0.678 -0.476 -0.447 -0.219
      -0.657  0.381  0.525  0.384  0.021
     occupation matrix ns (before diag.):
       0.037  0.035  0.009 -0.004  0.016
       0.035  0.825 -0.291  0.189 -0.016
       0.009 -0.291  0.200 -0.060 -0.003
      -0.004  0.189 -0.060  0.098 -0.034
       0.016 -0.016 -0.003 -0.034  0.048
     ------------------------ ATOM    4 ------------------------
     Tr[ns(  4)] (up, down, total) =   4.97601  1.20641  6.18243
     Atomic magnetic moment for atom   4 =   3.76960
     SPIN  1
     eigenvalues:
       0.993  0.994  0.996  0.996  0.998
     eigenvectors (columns):
      -0.002  0.333 -0.409 -0.814  0.243
       0.551  0.612 -0.379  0.398 -0.140
       0.141 -0.019  0.141 -0.352 -0.914
       0.037  0.572  0.795 -0.117  0.162
       0.821 -0.432  0.194 -0.203  0.244
     occupation matrix ns (before diag.):
       0.996 -0.001 -0.000 -0.000  0.000
      -0.001  0.994  0.000 -0.001 -0.001
      -0.000  0.000  0.998 -0.000 -0.001
      -0.000 -0.001 -0.000  0.995  0.000
       0.000 -0.001 -0.001  0.000  0.993
     SPIN  2
     eigenvalues:
       0.015  0.024  0.086  0.096  0.986
     eigenvectors (columns):
       0.514 -0.393  0.020  0.722 -0.244
      -0.319  0.427 -0.067  0.645  0.543
       0.766  0.309 -0.279 -0.222  0.436
       0.159  0.744  0.309  0.092 -0.563
       0.146 -0.118  0.907 -0.068  0.371
     occupation matrix ns (before diag.):
       0.117 -0.092 -0.118  0.137 -0.090
      -0.092  0.337  0.221 -0.291  0.188
      -0.118  0.221  0.210 -0.244  0.140
       0.137 -0.291 -0.244  0.335 -0.185
      -0.090  0.188  0.140 -0.185  0.208

     Number of occupied Hubbard levels =   18.5402

     negative rho (up, down):  0.000E+00 4.548E-04

     HUBBARD ENERGY =    0.1208  (Ry)

     total cpu time spent up to now is    75335.5 secs

     total energy              =   -2160.54190755 Ry
     estimated scf accuracy    <       0.00000001 Ry

     total magnetization       =    12.00 Bohr mag/cell
     absolute magnetization    =    12.04 Bohr mag/cell
[tb_dev] Currently allocated     0.00E+00 Mbytes, locked:    0 /   0
[tb_pin] Currently allocated     0.00E+00 Mbytes, locked:    0 /   0

     iteration # 89     ecut=    90.00 Ry     beta= 0.70
     CG style diagonalization

---- Real-time Memory Report at c_bands before calling an iterative solver
         25387 MiB given to the printing process from OS
             0 MiB allocation reported by mallinfo(arena+hblkhd)
        459721 MiB available memory on the node where the printing process lives
     GPU memory used/free/total (MiB): 13260 / 51684 / 64944
------------------

     Maximum CPU time exceeded

     max_seconds     =   75600.00
     elapsed seconds =   75601.23
     Calculation stopped in k-point loop, point #   159
     Calculation stopped in scf loop at iteration #    88

     Writing config to output data dir ./out/aiida.save/ :
     XML data file, charge density
 
     init_run     :     10.88s CPU     12.38s WALL (       1 calls)
     electrons    :  74373.91s CPU  75284.14s WALL (       2 calls)
     update_pot   :      1.25s CPU      1.30s WALL (       1 calls)
     forces       :     82.21s CPU     82.94s WALL (       1 calls)
     stress       :    208.15s CPU    209.64s WALL (       1 calls)

     Called by init_run:
     wfcinit      :      4.00s CPU      4.62s WALL (       1 calls)
     potinit      :      0.78s CPU      1.11s WALL (       1 calls)
     hinit0       :      4.61s CPU      4.83s WALL (       1 calls)

     Called by electrons:
     c_bands      :  70769.94s CPU  71625.35s WALL (     213 calls)
     sum_band     :   3389.86s CPU   3459.26s WALL (     212 calls)
     v_of_rho     :     18.89s CPU     19.22s WALL (     214 calls)
     v_h          :      6.95s CPU      7.08s WALL (     214 calls)
     v_xc         :     12.05s CPU     12.29s WALL (     216 calls)
     newd         :     18.51s CPU     18.70s WALL (     214 calls)
     PAW_pot      :     76.44s CPU     77.06s WALL (     215 calls)
     mix_rho      :     34.70s CPU     35.47s WALL (     212 calls)

     Called by c_bands:
     init_us_2    :    115.48s CPU    116.41s WALL (   96540 calls)
     ccgdiagg     :  67258.81s CPU  68047.00s WALL (   47747 calls)
     wfcrot       :   1590.62s CPU   1599.22s WALL (   47523 calls)
                                     1599.14s GPU  (   47523 calls)

     Called by sum_band:
     sum_band:wei :      2.40s CPU      2.43s WALL (     212 calls)
     sum_band:loo :   1614.28s CPU   1673.99s WALL (     212 calls)
     sum_band:buf :    843.81s CPU    900.21s WALL (   47488 calls)
     sum_band:ini :     56.96s CPU     57.37s WALL (   47488 calls)
     sum_band:cal :      2.75s CPU      2.78s WALL (   47712 calls)
     sum_band:bec :    105.19s CPU    105.75s WALL (   47712 calls)
     addusdens    :     37.71s CPU     38.01s WALL (     212 calls)
                                       38.00s GPU  (     212 calls)
     addusd:skk   :      0.46s CPU      0.48s WALL (     848 calls)
                                        0.47s GPU  (     848 calls)

     Called by *cgdiagg:
     h_psi        :  25296.03s CPU  25688.39s WALL (17414617 calls)
     s_psi        :  30854.56s CPU  31071.01s WALL (34783055 calls)

     Called by h_psi:
     h_psi:calbec :    164.53s CPU    167.08s WALL (17414617 calls)
     vloc_psi     :   6285.82s CPU   6512.48s WALL (17414617 calls)
                                     6401.86s GPU  (17414617 calls)
     add_vuspsi   :  13689.65s CPU  13960.48s WALL (17414617 calls)
     vhpsi        :   4648.61s CPU   4685.91s WALL (17414617 calls)
     hs_1psi      :  38353.11s CPU  41935.17s WALL (17367094 calls)
                                    41827.69s GPU  (17367094 calls)
     s_1psi       :  16850.87s CPU  20092.61s WALL (17367094 calls)
                                    19985.09s GPU  (17367094 calls)

     General routines
     calbec       :   1390.30s CPU   1403.27s WALL (53073288 calls)
     fft          :     40.83s CPU     42.69s WALL (    5387 calls)
                                        1.73s GPU  (    4959 calls)
     ffts         :      4.15s CPU      4.20s WALL (     852 calls)
                                        0.03s GPU  (     424 calls)
     fftw         :    277.10s CPU   3350.64s WALL (36016994 calls)
                                     3130.17s GPU  (36016994 calls)
     interpolate  :     49.51s CPU     49.84s WALL (     428 calls)
     davcio       :      0.08s CPU     22.11s WALL (     482 calls)
 
     Parallel routines

     Hubbard U routines
     new_ns       :   1698.69s CPU   1707.74s WALL (     212 calls)
     vhpsi        :   4648.61s CPU   4685.91s WALL (17414617 calls)
     force_hub    :     75.56s CPU     76.19s WALL (       1 calls)
     stres_hub    :    198.46s CPU    199.85s WALL (       1 calls)

     PAW routines
     PAW_pot      :     76.44s CPU     77.06s WALL (     215 calls)
     PAW_symme    :      0.07s CPU      0.08s WALL (     426 calls)
 
     PWSCF        :     20h44m CPU     21h 0m WALL

 
   This run was terminated on:  20: 2:40  16Oct2025            

=------------------------------------------------------------------------------=
   JOB DONE.
=------------------------------------------------------------------------------=
