
     Program PWSCF v.7.4.1 starts on 13Oct2025 at 17:20:23 

     This program is part of the open-source Quantum ESPRESSO suite
     for quantum simulation of materials; please cite
         "P. Giannozzi et al., J. Phys.:Condens. Matter 21 395502 (2009);
         "P. Giannozzi et al., J. Phys.:Condens. Matter 29 465901 (2017);
         "P. Giannozzi et al., J. Chem. Phys. 152 154105 (2020);
          URL http://www.quantum-espresso.org", 
     in publications or presentations arising from this work. More details at
     http://www.quantum-espresso.org/quote

     Parallel version (MPI & OpenMP), running on       1 processor cores
     Number of MPI processes:                 1
     Threads/MPI process:                     1

     MPI processes distributed on     1 nodes
     495578 MiB available memory on the printing compute node when the environment starts
 
     Reading input from pwscf.in
Warning: card &FCP ignored
Warning: card &RISM ignored

     Current dimensions of program PWSCF are:
     Max number of different atomic species (ntypx) = 10
     Max number of k-points (npk) =  40000
     Max angular momentum in pseudopotentials (lmaxx) =  4
     file K.pbesol-spn-kjpaw_psl.1.0.0.UPF: wavefunction(s)  3S renormalized
 check tnoseh fnoseh  F    1.000000000000000     
     Message from routine setup:
     using ibrav=0 with symmetry is DISCOURAGED, use correct ibrav instead
 
     Subspace diagonalization in iterative solution of the eigenvalue problem:
     a serial algorithm will be used

 
     G-vector sticks info
     --------------------
     sticks:   dense  smooth     PW     G-vecs:    dense   smooth      PW
     Sum        1781     885    261               112387    39727    6421
 
     Using Slab Decomposition
 


     bravais-lattice index     =            0
     lattice parameter (alat)  =       6.8183  a.u.
     unit-cell volume          =     632.5916 (a.u.)^3
     number of atoms/cell      =            5
     number of atomic types    =            3
     number of electrons       =        47.00
     number of Kohn-Sham states=           29
     kinetic-energy cutoff     =      60.0000  Ry
     charge density cutoff     =     480.0000  Ry
     scf convergence threshold =      1.0E-09
     mixing beta               =       0.4000
     number of iterations used =            8  plain     mixing
     energy convergence thresh.=      5.0E-05
     force convergence thresh. =      1.0E-04
     press convergence thresh. =      5.0E-01
     Exchange-correlation= SLA  PW   PSX  PSC
                           (   1   4  10   8   0   0   0)
     nstep                     =          180


     GPU acceleration is ACTIVE.  1 visible GPUs per MPI rank
     GPU-aware MPI enabled


     GPU used by master process:

        Device Number: 0
        Device name: NVIDIA A100-SXM-64GB
        Compute capability : 80
        Ratio of single to double precision performance  : 2
        Memory Clock Rate (KHz): 1593000
        Memory Bus Width (bits): 4096
        Peak Memory Bandwidth (GB/s): ******
     Hubbard projectors: ortho-atomic
     Hubbard parameters of DFT+U (Dudarev formulation) in eV:
     U(V-3d) =  3.9000

     Internal variables: lda_plus_u = T, lda_plus_u_kind = 0

     celldm(1)=   6.818344  celldm(2)=   0.000000  celldm(3)=   0.000000
     celldm(4)=   0.000000  celldm(5)=   0.000000  celldm(6)=   0.000000

     crystal axes: (cart. coord. in units of alat)
               a(1) = (   1.000000   0.000000   0.000000 )  
               a(2) = (   0.000000   1.000000   0.000000 )  
               a(3) = (  -0.500000  -0.500000   1.995661 )  

     reciprocal axes: (cart. coord. in units 2 pi/alat)
               b(1) = (  1.000000 -0.000000  0.250544 )  
               b(2) = ( -0.000000  1.000000  0.250544 )  
               b(3) = (  0.000000  0.000000  0.501087 )  


     PseudoPot. # 1 for K  read from file:
     /leonardo_scratch/large/userexternal/nalghamd/mc_mace/GNoME-screening/2_space_group_DFT/pseudo_SSSP1.3_aiida/K.pbesol-spn-kjpaw_psl.1.0.0.UPF
     MD5 check sum: b302bede38c4f5fe00638ceae66f121b
     Pseudo is Projector augmented-wave + core cor, Zval =  9.0
     Generated using "atomic" code by A. Dal Corso  v.6.0 svn rev. 13079
     Shape of augmentation charge: PSQ
     Using radial grid of 1165 points,  6 beta functions with: 
                l(1) =   0
                l(2) =   0
                l(3) =   1
                l(4) =   1
                l(5) =   2
                l(6) =   2
     Q(r) pseudized with 0 coefficients 


     PseudoPot. # 2 for S  read from file:
     /leonardo_scratch/large/userexternal/nalghamd/mc_mace/GNoME-screening/2_space_group_DFT/pseudo_SSSP1.3_aiida/s_pbesol_v1.4.uspp.F.UPF
     MD5 check sum: 0ccfa86ec6eb59065d10aaae963ef2a7
     Pseudo is Ultrasoft + core correction, Zval =  6.0
     Generated by new atomic code, or converted to UPF format
     Using radial grid of  907 points,  6 beta functions with: 
                l(1) =   0
                l(2) =   0
                l(3) =   1
                l(4) =   1
                l(5) =   2
                l(6) =   2
     Q(r) pseudized with  8 coefficients,  rinner =    1.300   1.300   1.300
                                                       1.300   1.300

     PseudoPot. # 3 for V  read from file:
     /leonardo_scratch/large/userexternal/nalghamd/mc_mace/GNoME-screening/2_space_group_DFT/pseudo_SSSP1.3_aiida/v_pbesol_v1.4.uspp.F.UPF
     MD5 check sum: 72fa7d0034c41d8adc50bbc8c632b9f9
     Pseudo is Ultrasoft + core correction, Zval = 13.0
     Generated by new atomic code, or converted to UPF format
     Using radial grid of  853 points,  6 beta functions with: 
                l(1) =   0
                l(2) =   0
                l(3) =   1
                l(4) =   1
                l(5) =   2
                l(6) =   2
     Q(r) pseudized with  8 coefficients,  rinner =    1.100   1.100   1.100
                                                       1.100   1.100

     atomic species   valence    mass     pseudopotential
     K                 9.00    39.09830     K ( 1.00)
     S                 6.00    32.06500     S ( 1.00)
     V                13.00    50.94150     V ( 1.00)

     Starting magnetic structure 
     atomic species   magnetization
     K               0.100
     S               0.100
     V               0.385

     16 Sym. Ops., with inversion, found


                                    s                        frac. trans.

      isym =  1     identity                                     

 cryst.   s( 1) = (     1          0          0      )
                  (     0          1          0      )
                  (     0          0          1      )

 cart.    s( 1) = (  1.0000000  0.0000000  0.0000000 )
                  (  0.0000000  1.0000000  0.0000000 )
                  (  0.0000000  0.0000000  1.0000000 )


      isym =  2     180 deg rotation - cart. axis [0,0,1]        

 cryst.   s( 2) = (    -1          0          0      )
                  (     0         -1          0      )
                  (     1          1          1      )

 cart.    s( 2) = ( -1.0000000 -0.0000000 -0.0000000 )
                  (  0.0000000 -1.0000000  0.0000001 )
                  (  0.0000000  0.0000000  1.0000000 )


      isym =  3     180 deg rotation - cart. axis [0,1,0]        

 cryst.   s( 3) = (    -1          0          0      )
                  (     0          1          0      )
                  (     0         -1         -1      )

 cart.    s( 3) = ( -1.0000000  0.0000000 -0.0000000 )
                  (  0.0000000  1.0000000 -0.0000001 )
                  (  0.0000000  0.0000000 -1.0000000 )


      isym =  4     180 deg rotation - cart. axis [1,0,0]        

 cryst.   s( 4) = (     1          0          0      )
                  (     0         -1          0      )
                  (    -1          0         -1      )

 cart.    s( 4) = (  1.0000000 -0.0000000  0.0000000 )
                  (  0.0000000 -1.0000000 -0.0000000 )
                  (  0.0000000  0.0000000 -1.0000000 )


      isym =  5     180 deg rotation - cart. axis [1,1,0]        

 cryst.   s( 5) = (     0          1          0      )
                  (     1          0          0      )
                  (    -1         -1         -1      )

 cart.    s( 5) = (  0.0000000  0.9999998 -0.0000000 )
                  (  1.0000002 -0.0000000 -0.0000000 )
                  (  0.0000000  0.0000000 -1.0000000 )


      isym =  6     180 deg rotation - cart. axis [1,-1,0]       

 cryst.   s( 6) = (     0         -1          0      )
                  (    -1          0          0      )
                  (     0          0         -1      )

 cart.    s( 6) = ( -0.0000000 -0.9999998  0.0000001 )
                  ( -1.0000002  0.0000000 -0.0000001 )
                  (  0.0000000  0.0000000 -1.0000000 )


      isym =  7      90 deg rotation - cart. axis [0,0,-1]       

 cryst.   s( 7) = (     0         -1          0      )
                  (     1          0          0      )
                  (     0          1          1      )

 cart.    s( 7) = ( -0.0000000  0.9999998 -0.0000001 )
                  ( -1.0000002  0.0000000  0.0000000 )
                  (  0.0000000  0.0000000  1.0000000 )


      isym =  8      90 deg rotation - cart. axis [0,0,1]        

 cryst.   s( 8) = (     0          1          0      )
                  (    -1          0          0      )
                  (     1          0          1      )

 cart.    s( 8) = (  0.0000000 -0.9999998  0.0000000 )
                  (  1.0000002 -0.0000000  0.0000001 )
                  (  0.0000000  0.0000000  1.0000000 )


      isym =  9     inversion                                    

 cryst.   s( 9) = (    -1          0          0      )
                  (     0         -1          0      )
                  (     0          0         -1      )

 cart.    s( 9) = ( -1.0000000 -0.0000000 -0.0000000 )
                  (  0.0000000 -1.0000000 -0.0000000 )
                  (  0.0000000  0.0000000 -1.0000000 )


      isym = 10     inv. 180 deg rotation - cart. axis [0,0,1]   

 cryst.   s(10) = (     1          0          0      )
                  (     0          1          0      )
                  (    -1         -1         -1      )

 cart.    s(10) = (  1.0000000  0.0000000  0.0000000 )
                  (  0.0000000  1.0000000 -0.0000001 )
                  (  0.0000000  0.0000000 -1.0000000 )


      isym = 11     inv. 180 deg rotation - cart. axis [0,1,0]   

 cryst.   s(11) = (     1          0          0      )
                  (     0         -1          0      )
                  (     0          1          1      )

 cart.    s(11) = (  1.0000000 -0.0000000  0.0000000 )
                  (  0.0000000 -1.0000000  0.0000001 )
                  (  0.0000000  0.0000000  1.0000000 )


      isym = 12     inv. 180 deg rotation - cart. axis [1,0,0]   

 cryst.   s(12) = (    -1          0          0      )
                  (     0          1          0      )
                  (     1          0          1      )

 cart.    s(12) = ( -1.0000000  0.0000000 -0.0000000 )
                  (  0.0000000  1.0000000  0.0000000 )
                  (  0.0000000  0.0000000  1.0000000 )


      isym = 13     inv. 180 deg rotation - cart. axis [1,1,0]   

 cryst.   s(13) = (     0         -1          0      )
                  (    -1          0          0      )
                  (     1          1          1      )

 cart.    s(13) = ( -0.0000000 -0.9999998  0.0000000 )
                  ( -1.0000002  0.0000000  0.0000000 )
                  (  0.0000000  0.0000000  1.0000000 )


      isym = 14     inv. 180 deg rotation - cart. axis [1,-1,0]  

 cryst.   s(14) = (     0          1          0      )
                  (     1          0          0      )
                  (     0          0          1      )

 cart.    s(14) = (  0.0000000  0.9999998 -0.0000001 )
                  (  1.0000002 -0.0000000  0.0000001 )
                  (  0.0000000  0.0000000  1.0000000 )


      isym = 15     inv.  90 deg rotation - cart. axis [0,0,-1]  

 cryst.   s(15) = (     0          1          0      )
                  (    -1          0          0      )
                  (     0         -1         -1      )

 cart.    s(15) = (  0.0000000 -0.9999998  0.0000001 )
                  (  1.0000002 -0.0000000 -0.0000000 )
                  (  0.0000000  0.0000000 -1.0000000 )


      isym = 16     inv.  90 deg rotation - cart. axis [0,0,1]   

 cryst.   s(16) = (     0         -1          0      )
                  (     1          0          0      )
                  (    -1          0         -1      )

 cart.    s(16) = ( -0.0000000  0.9999998 -0.0000000 )
                  ( -1.0000002  0.0000000 -0.0000001 )
                  (  0.0000000  0.0000000 -1.0000000 )


   Cartesian axes

     site n.     atom                  positions (alat units)
         1        K      tau(   1) = (   0.0000000   0.0000000   0.0000000  )
         2        V      tau(   2) = (   0.5000000   0.0000000   0.9978303  )
         3        V      tau(   3) = (  -0.0000000   0.5000001   0.9978303  )
         4        S      tau(   4) = (   0.4999995   0.4999996   0.5598526  )
         5        S      tau(   5) = (  -0.0000005  -0.0000004   1.4358079  )

   Crystallographic axes

     site n.     atom                  positions (cryst. coord.)
         1        K      tau(   1) = (  0.0000000  0.0000000  0.0000000  )
         2        V      tau(   2) = (  0.7500000  0.2500000  0.5000000  )
         3        V      tau(   3) = (  0.2500000  0.7500000  0.5000000  )
         4        S      tau(   4) = (  0.6402670  0.6402670  0.2805350  )
         5        S      tau(   5) = (  0.3597320  0.3597320  0.7194650  )

     number of k points=   135  Marzari-Vanderbilt smearing, width (Ry)=  0.0200
                       cart. coord. in units 2pi/alat
        k(    1) = (   0.0000000   0.0000000   0.0000000), wk =   0.0011574
        k(    2) = (   0.0000000   0.0000000   0.0835145), wk =   0.0023148
        k(    3) = (   0.0000000   0.0000000   0.1670291), wk =   0.0023148
        k(    4) = (   0.0000000   0.0000000  -0.2505436), wk =   0.0011574
        k(    5) = (   0.0000000   0.0833333   0.0208786), wk =   0.0046296
        k(    6) = (   0.0000000   0.0833333   0.1043932), wk =   0.0046296
        k(    7) = (   0.0000000   0.0833333   0.1879077), wk =   0.0046296
        k(    8) = (   0.0000000   0.0833333  -0.2296650), wk =   0.0046296
        k(    9) = (   0.0000000   0.0833333  -0.1461504), wk =   0.0046296
        k(   10) = (   0.0000000   0.0833333  -0.0626359), wk =   0.0046296
        k(   11) = (   0.0000000   0.1666666   0.0417573), wk =   0.0092593
        k(   12) = (   0.0000000   0.1666666   0.1252718), wk =   0.0092593
        k(   13) = (   0.0000000   0.1666666   0.2087863), wk =   0.0092593
        k(   14) = (   0.0000000   0.2500000   0.0626359), wk =   0.0046296
        k(   15) = (   0.0000000   0.2500000   0.1461504), wk =   0.0046296
        k(   16) = (   0.0000000   0.2500000   0.2296650), wk =   0.0046296
        k(   17) = (   0.0000000   0.2500000  -0.1879077), wk =   0.0046296
        k(   18) = (   0.0000000   0.2500000  -0.1043932), wk =   0.0046296
        k(   19) = (   0.0000000   0.2500000  -0.0208786), wk =   0.0046296
        k(   20) = (   0.0000000   0.3333333   0.0835145), wk =   0.0092593
        k(   21) = (   0.0000000   0.3333333   0.1670291), wk =   0.0092593
        k(   22) = (   0.0000000   0.3333333   0.2505436), wk =   0.0046296
        k(   23) = (   0.0000000   0.3333333  -0.0000000), wk =   0.0046296
        k(   24) = (   0.0000000   0.4166666   0.1043932), wk =   0.0046296
        k(   25) = (   0.0000000   0.4166666   0.1879077), wk =   0.0046296
        k(   26) = (   0.0000000   0.4166666   0.2714222), wk =   0.0046296
        k(   27) = (   0.0000000   0.4166666  -0.1461505), wk =   0.0046296
        k(   28) = (   0.0000000   0.4166666  -0.0626359), wk =   0.0046296
        k(   29) = (   0.0000000   0.4166666   0.0208786), wk =   0.0046296
        k(   30) = (   0.0000000  -0.4999999  -0.1252718), wk =   0.0046296
        k(   31) = (   0.0000000  -0.4999999  -0.0417572), wk =   0.0092593
        k(   32) = (   0.0833333   0.0833333   0.0417573), wk =   0.0046296
        k(   33) = (   0.0833333   0.0833333   0.1252718), wk =   0.0046296
        k(   34) = (   0.0833333   0.0833333   0.2087863), wk =   0.0046296
        k(   35) = (   0.0833333   0.1666666   0.0626359), wk =   0.0092593
        k(   36) = (   0.0833333   0.1666666   0.1461504), wk =   0.0092593
        k(   37) = (   0.0833333   0.1666666   0.2296650), wk =   0.0092593
        k(   38) = (   0.0833333   0.1666666  -0.1879077), wk =   0.0092593
        k(   39) = (   0.0833333   0.1666666  -0.1043932), wk =   0.0092593
        k(   40) = (   0.0833333   0.1666666  -0.0208786), wk =   0.0092593
        k(   41) = (   0.0833333   0.2500000   0.0835145), wk =   0.0092593
        k(   42) = (   0.0833333   0.2500000   0.1670291), wk =   0.0092593
        k(   43) = (   0.0833333   0.2500000   0.2505436), wk =   0.0046296
        k(   44) = (   0.0833333   0.2500000  -0.0000000), wk =   0.0046296
        k(   45) = (   0.0833333   0.3333333   0.1043932), wk =   0.0092593
        k(   46) = (   0.0833333   0.3333333   0.1879077), wk =   0.0092593
        k(   47) = (   0.0833333   0.3333333   0.2714222), wk =   0.0092593
        k(   48) = (   0.0833333   0.3333333  -0.1461505), wk =   0.0092593
        k(   49) = (   0.0833333   0.3333333  -0.0626359), wk =   0.0092593
        k(   50) = (   0.0833333   0.3333333   0.0208786), wk =   0.0092593
        k(   51) = (   0.0833333   0.4166666   0.1252718), wk =   0.0092593
        k(   52) = (   0.0833333   0.4166666   0.2087863), wk =   0.0092593
        k(   53) = (   0.0833333   0.4166666  -0.0417573), wk =   0.0092593
        k(   54) = (   0.0833333  -0.4999999  -0.1043931), wk =   0.0092593
        k(   55) = (   0.0833333  -0.4999999  -0.0208786), wk =   0.0092593
        k(   56) = (   0.0833333  -0.4999999   0.0626359), wk =   0.0092593
        k(   57) = (   0.0833333  -0.4166666  -0.0835145), wk =   0.0092593
        k(   58) = (   0.0833333  -0.4166666   0.0000000), wk =   0.0046296
        k(   59) = (   0.0833333  -0.4166666  -0.3340581), wk =   0.0092593
        k(   60) = (   0.0833333  -0.4166666  -0.2505436), wk =   0.0046296
        k(   61) = (   0.0833333  -0.2500000  -0.0417573), wk =   0.0092593
        k(   62) = (   0.0833333  -0.2500000   0.1252718), wk =   0.0092593
        k(   63) = (   0.0833333  -0.2500000  -0.2923009), wk =   0.0092593
        k(   64) = (   0.0833333  -0.0833333   0.0000000), wk =   0.0023148
        k(   65) = (   0.0833333  -0.0833333   0.0835145), wk =   0.0046296
        k(   66) = (   0.0833333  -0.0833333   0.1670291), wk =   0.0046296
        k(   67) = (   0.0833333  -0.0833333  -0.2505436), wk =   0.0023148
        k(   68) = (   0.1666667   0.1666666   0.0835145), wk =   0.0092593
        k(   69) = (   0.1666667   0.1666666   0.1670291), wk =   0.0092593
        k(   70) = (   0.1666667   0.1666666   0.2505436), wk =   0.0046296
        k(   71) = (   0.1666667   0.1666666  -0.0000000), wk =   0.0046296
        k(   72) = (   0.1666667   0.2500000   0.1043932), wk =   0.0092593
        k(   73) = (   0.1666667   0.2500000   0.1879077), wk =   0.0092593
        k(   74) = (   0.1666667   0.2500000   0.2714222), wk =   0.0092593
        k(   75) = (   0.1666667   0.2500000  -0.1461504), wk =   0.0092593
        k(   76) = (   0.1666667   0.2500000  -0.0626359), wk =   0.0092593
        k(   77) = (   0.1666667   0.2500000   0.0208786), wk =   0.0092593
        k(   78) = (   0.1666667   0.3333333   0.1252718), wk =   0.0185185
        k(   79) = (   0.1666667   0.3333333   0.2087863), wk =   0.0185185
        k(   80) = (   0.1666667   0.3333333  -0.0417573), wk =   0.0185185
        k(   81) = (   0.1666667   0.4166666   0.1461504), wk =   0.0092593
        k(   82) = (   0.1666667   0.4166666   0.2296650), wk =   0.0092593
        k(   83) = (   0.1666667   0.4166666   0.3131795), wk =   0.0092593
        k(   84) = (   0.1666667   0.4166666  -0.1043932), wk =   0.0092593
        k(   85) = (   0.1666667   0.4166666  -0.0208787), wk =   0.0092593
        k(   86) = (   0.1666667   0.4166666   0.0626359), wk =   0.0092593
        k(   87) = (   0.1666667  -0.4999999  -0.0835145), wk =   0.0185185
        k(   88) = (   0.1666667  -0.4999999   0.0000000), wk =   0.0092593
        k(   89) = (   0.2500000   0.2499999   0.1252718), wk =   0.0046296
        k(   90) = (   0.2500000   0.2499999   0.2087863), wk =   0.0046296
        k(   91) = (   0.2500000   0.2499999  -0.0417573), wk =   0.0046296
        k(   92) = (   0.2500000   0.3333333   0.1461504), wk =   0.0092593
        k(   93) = (   0.2500000   0.3333333   0.2296650), wk =   0.0092593
        k(   94) = (   0.2500000   0.3333333   0.3131795), wk =   0.0092593
        k(   95) = (   0.2500000   0.3333333  -0.1043932), wk =   0.0092593
        k(   96) = (   0.2500000   0.3333333  -0.0208786), wk =   0.0092593
        k(   97) = (   0.2500000   0.3333333   0.0626359), wk =   0.0092593
        k(   98) = (   0.2500000   0.4166666   0.1670291), wk =   0.0092593
        k(   99) = (   0.2500000   0.4166666   0.2505436), wk =   0.0046296
        k(  100) = (   0.2500000   0.4166666  -0.0835146), wk =   0.0092593
        k(  101) = (   0.2500000   0.4166666  -0.0000000), wk =   0.0046296
        k(  102) = (   0.2500000  -0.4999999  -0.0626359), wk =   0.0092593
        k(  103) = (   0.2500000  -0.4999999   0.0208787), wk =   0.0092593
        k(  104) = (   0.2500000  -0.4999999   0.1043932), wk =   0.0092593
        k(  105) = (   0.2500000  -0.4166666  -0.0417572), wk =   0.0092593
        k(  106) = (   0.2500000  -0.4166666   0.1252718), wk =   0.0092593
        k(  107) = (   0.2500000  -0.4166666  -0.2923009), wk =   0.0092593
        k(  108) = (   0.2500000  -0.2500000   0.0000000), wk =   0.0023148
        k(  109) = (   0.2500000  -0.2500000   0.0835146), wk =   0.0046296
        k(  110) = (   0.2500000  -0.2500000   0.1670291), wk =   0.0046296
        k(  111) = (   0.2500000  -0.2500000  -0.2505436), wk =   0.0023148
        k(  112) = (   0.3333333   0.3333333   0.1670291), wk =   0.0092593
        k(  113) = (   0.3333333   0.3333333   0.2505436), wk =   0.0046296
        k(  114) = (   0.3333333   0.3333333  -0.0835145), wk =   0.0092593
        k(  115) = (   0.3333333   0.3333333  -0.0000000), wk =   0.0046296
        k(  116) = (   0.3333333   0.4166666   0.1879077), wk =   0.0092593
        k(  117) = (   0.3333333   0.4166666   0.2714222), wk =   0.0092593
        k(  118) = (   0.3333333   0.4166666   0.3549368), wk =   0.0092593
        k(  119) = (   0.3333333   0.4166666  -0.0626359), wk =   0.0092593
        k(  120) = (   0.3333333   0.4166666   0.0208786), wk =   0.0092593
        k(  121) = (   0.3333333   0.4166666   0.1043932), wk =   0.0092593
        k(  122) = (   0.3333333  -0.4999999  -0.0417572), wk =   0.0185185
        k(  123) = (   0.3333333  -0.4999999   0.1252718), wk =   0.0092593
        k(  124) = (   0.4166667   0.4166666   0.2087863), wk =   0.0046296
        k(  125) = (   0.4166667   0.4166666   0.3758154), wk =   0.0046296
        k(  126) = (   0.4166667   0.4166666  -0.0417573), wk =   0.0046296
        k(  127) = (   0.4166667  -0.4999999  -0.0208786), wk =   0.0092593
        k(  128) = (   0.4166667  -0.4999999   0.0626359), wk =   0.0092593
        k(  129) = (   0.4166667  -0.4999999   0.1461505), wk =   0.0092593
        k(  130) = (   0.4166667  -0.4166666   0.0000000), wk =   0.0023148
        k(  131) = (   0.4166667  -0.4166666   0.0835146), wk =   0.0046296
        k(  132) = (   0.4166667  -0.4166666   0.1670291), wk =   0.0046296
        k(  133) = (   0.4166667  -0.4166666  -0.2505436), wk =   0.0023148
        k(  134) = (  -0.5000000  -0.4999999  -0.2505436), wk =   0.0023148
        k(  135) = (  -0.5000000  -0.4999999  -0.1670291), wk =   0.0046296

                       cryst. coord.
        k(    1) = (   0.0000000   0.0000000   0.0000000), wk =   0.0011574
        k(    2) = (   0.0000000   0.0000000   0.1666667), wk =   0.0023148
        k(    3) = (   0.0000000   0.0000000   0.3333333), wk =   0.0023148
        k(    4) = (   0.0000000   0.0000000  -0.5000000), wk =   0.0011574
        k(    5) = (   0.0000000   0.0833333  -0.0000000), wk =   0.0046296
        k(    6) = (   0.0000000   0.0833333   0.1666667), wk =   0.0046296
        k(    7) = (   0.0000000   0.0833333   0.3333333), wk =   0.0046296
        k(    8) = (   0.0000000   0.0833333  -0.5000000), wk =   0.0046296
        k(    9) = (   0.0000000   0.0833333  -0.3333333), wk =   0.0046296
        k(   10) = (   0.0000000   0.0833333  -0.1666667), wk =   0.0046296
        k(   11) = (   0.0000000   0.1666667  -0.0000000), wk =   0.0092593
        k(   12) = (   0.0000000   0.1666667   0.1666667), wk =   0.0092593
        k(   13) = (   0.0000000   0.1666667   0.3333333), wk =   0.0092593
        k(   14) = (   0.0000000   0.2500000  -0.0000000), wk =   0.0046296
        k(   15) = (   0.0000000   0.2500000   0.1666667), wk =   0.0046296
        k(   16) = (   0.0000000   0.2500000   0.3333333), wk =   0.0046296
        k(   17) = (   0.0000000   0.2500000  -0.5000000), wk =   0.0046296
        k(   18) = (   0.0000000   0.2500000  -0.3333333), wk =   0.0046296
        k(   19) = (   0.0000000   0.2500000  -0.1666667), wk =   0.0046296
        k(   20) = (   0.0000000   0.3333333  -0.0000000), wk =   0.0092593
        k(   21) = (   0.0000000   0.3333333   0.1666667), wk =   0.0092593
        k(   22) = (   0.0000000   0.3333333   0.3333333), wk =   0.0046296
        k(   23) = (   0.0000000   0.3333333  -0.1666667), wk =   0.0046296
        k(   24) = (   0.0000000   0.4166667   0.0000000), wk =   0.0046296
        k(   25) = (   0.0000000   0.4166667   0.1666667), wk =   0.0046296
        k(   26) = (   0.0000000   0.4166667   0.3333333), wk =   0.0046296
        k(   27) = (   0.0000000   0.4166667  -0.5000000), wk =   0.0046296
        k(   28) = (   0.0000000   0.4166667  -0.3333333), wk =   0.0046296
        k(   29) = (   0.0000000   0.4166667  -0.1666667), wk =   0.0046296
        k(   30) = (   0.0000000  -0.5000000   0.0000000), wk =   0.0046296
        k(   31) = (   0.0000000  -0.5000000   0.1666667), wk =   0.0092593
        k(   32) = (   0.0833333   0.0833333  -0.0000000), wk =   0.0046296
        k(   33) = (   0.0833333   0.0833333   0.1666667), wk =   0.0046296
        k(   34) = (   0.0833333   0.0833333   0.3333333), wk =   0.0046296
        k(   35) = (   0.0833333   0.1666667  -0.0000000), wk =   0.0092593
        k(   36) = (   0.0833333   0.1666667   0.1666667), wk =   0.0092593
        k(   37) = (   0.0833333   0.1666667   0.3333333), wk =   0.0092593
        k(   38) = (   0.0833333   0.1666667  -0.5000000), wk =   0.0092593
        k(   39) = (   0.0833333   0.1666667  -0.3333333), wk =   0.0092593
        k(   40) = (   0.0833333   0.1666667  -0.1666667), wk =   0.0092593
        k(   41) = (   0.0833333   0.2500000  -0.0000000), wk =   0.0092593
        k(   42) = (   0.0833333   0.2500000   0.1666667), wk =   0.0092593
        k(   43) = (   0.0833333   0.2500000   0.3333333), wk =   0.0046296
        k(   44) = (   0.0833333   0.2500000  -0.1666667), wk =   0.0046296
        k(   45) = (   0.0833333   0.3333333  -0.0000000), wk =   0.0092593
        k(   46) = (   0.0833333   0.3333333   0.1666667), wk =   0.0092593
        k(   47) = (   0.0833333   0.3333333   0.3333333), wk =   0.0092593
        k(   48) = (   0.0833333   0.3333333  -0.5000000), wk =   0.0092593
        k(   49) = (   0.0833333   0.3333333  -0.3333333), wk =   0.0092593
        k(   50) = (   0.0833333   0.3333333  -0.1666667), wk =   0.0092593
        k(   51) = (   0.0833333   0.4166667   0.0000000), wk =   0.0092593
        k(   52) = (   0.0833333   0.4166667   0.1666667), wk =   0.0092593
        k(   53) = (   0.0833333   0.4166667  -0.3333333), wk =   0.0092593
        k(   54) = (   0.0833333  -0.5000000   0.0000000), wk =   0.0092593
        k(   55) = (   0.0833333  -0.5000000   0.1666667), wk =   0.0092593
        k(   56) = (   0.0833333  -0.5000000   0.3333333), wk =   0.0092593
        k(   57) = (   0.0833333  -0.4166667   0.0000000), wk =   0.0092593
        k(   58) = (   0.0833333  -0.4166667   0.1666667), wk =   0.0046296
        k(   59) = (   0.0833333  -0.4166667  -0.5000000), wk =   0.0092593
        k(   60) = (   0.0833333  -0.4166667  -0.3333333), wk =   0.0046296
        k(   61) = (   0.0833333  -0.2500000  -0.0000000), wk =   0.0092593
        k(   62) = (   0.0833333  -0.2500000   0.3333333), wk =   0.0092593
        k(   63) = (   0.0833333  -0.2500000  -0.5000000), wk =   0.0092593
        k(   64) = (   0.0833333  -0.0833333   0.0000000), wk =   0.0023148
        k(   65) = (   0.0833333  -0.0833333   0.1666667), wk =   0.0046296
        k(   66) = (   0.0833333  -0.0833333   0.3333333), wk =   0.0046296
        k(   67) = (   0.0833333  -0.0833333  -0.5000000), wk =   0.0023148
        k(   68) = (   0.1666667   0.1666667  -0.0000000), wk =   0.0092593
        k(   69) = (   0.1666667   0.1666667   0.1666667), wk =   0.0092593
        k(   70) = (   0.1666667   0.1666667   0.3333333), wk =   0.0046296
        k(   71) = (   0.1666667   0.1666667  -0.1666667), wk =   0.0046296
        k(   72) = (   0.1666667   0.2500000   0.0000000), wk =   0.0092593
        k(   73) = (   0.1666667   0.2500000   0.1666667), wk =   0.0092593
        k(   74) = (   0.1666667   0.2500000   0.3333333), wk =   0.0092593
        k(   75) = (   0.1666667   0.2500000  -0.5000000), wk =   0.0092593
        k(   76) = (   0.1666667   0.2500000  -0.3333333), wk =   0.0092593
        k(   77) = (   0.1666667   0.2500000  -0.1666667), wk =   0.0092593
        k(   78) = (   0.1666667   0.3333333  -0.0000000), wk =   0.0185185
        k(   79) = (   0.1666667   0.3333333   0.1666667), wk =   0.0185185
        k(   80) = (   0.1666667   0.3333333  -0.3333333), wk =   0.0185185
        k(   81) = (   0.1666667   0.4166667   0.0000000), wk =   0.0092593
        k(   82) = (   0.1666667   0.4166667   0.1666667), wk =   0.0092593
        k(   83) = (   0.1666667   0.4166667   0.3333333), wk =   0.0092593
        k(   84) = (   0.1666667   0.4166667  -0.5000000), wk =   0.0092593
        k(   85) = (   0.1666667   0.4166667  -0.3333333), wk =   0.0092593
        k(   86) = (   0.1666667   0.4166667  -0.1666667), wk =   0.0092593
        k(   87) = (   0.1666667  -0.5000000  -0.0000000), wk =   0.0185185
        k(   88) = (   0.1666667  -0.5000000   0.1666667), wk =   0.0092593
        k(   89) = (   0.2500000   0.2500000   0.0000000), wk =   0.0046296
        k(   90) = (   0.2500000   0.2500000   0.1666667), wk =   0.0046296
        k(   91) = (   0.2500000   0.2500000  -0.3333333), wk =   0.0046296
        k(   92) = (   0.2500000   0.3333333  -0.0000000), wk =   0.0092593
        k(   93) = (   0.2500000   0.3333333   0.1666667), wk =   0.0092593
        k(   94) = (   0.2500000   0.3333333   0.3333333), wk =   0.0092593
        k(   95) = (   0.2500000   0.3333333  -0.5000000), wk =   0.0092593
        k(   96) = (   0.2500000   0.3333333  -0.3333333), wk =   0.0092593
        k(   97) = (   0.2500000   0.3333333  -0.1666667), wk =   0.0092593
        k(   98) = (   0.2500000   0.4166667   0.0000000), wk =   0.0092593
        k(   99) = (   0.2500000   0.4166667   0.1666667), wk =   0.0046296
        k(  100) = (   0.2500000   0.4166667  -0.5000000), wk =   0.0092593
        k(  101) = (   0.2500000   0.4166667  -0.3333333), wk =   0.0046296
        k(  102) = (   0.2500000  -0.5000000   0.0000000), wk =   0.0092593
        k(  103) = (   0.2500000  -0.5000000   0.1666667), wk =   0.0092593
        k(  104) = (   0.2500000  -0.5000000   0.3333333), wk =   0.0092593
        k(  105) = (   0.2500000  -0.4166667  -0.0000000), wk =   0.0092593
        k(  106) = (   0.2500000  -0.4166667   0.3333333), wk =   0.0092593
        k(  107) = (   0.2500000  -0.4166667  -0.5000000), wk =   0.0092593
        k(  108) = (   0.2500000  -0.2500000   0.0000000), wk =   0.0023148
        k(  109) = (   0.2500000  -0.2500000   0.1666667), wk =   0.0046296
        k(  110) = (   0.2500000  -0.2500000   0.3333333), wk =   0.0046296
        k(  111) = (   0.2500000  -0.2500000  -0.5000000), wk =   0.0023148
        k(  112) = (   0.3333333   0.3333333  -0.0000000), wk =   0.0092593
        k(  113) = (   0.3333333   0.3333333   0.1666667), wk =   0.0046296
        k(  114) = (   0.3333333   0.3333333  -0.5000000), wk =   0.0092593
        k(  115) = (   0.3333333   0.3333333  -0.3333333), wk =   0.0046296
        k(  116) = (   0.3333333   0.4166667   0.0000000), wk =   0.0092593
        k(  117) = (   0.3333333   0.4166667   0.1666667), wk =   0.0092593
        k(  118) = (   0.3333333   0.4166667   0.3333333), wk =   0.0092593
        k(  119) = (   0.3333333   0.4166667  -0.5000000), wk =   0.0092593
        k(  120) = (   0.3333333   0.4166667  -0.3333333), wk =   0.0092593
        k(  121) = (   0.3333333   0.4166667  -0.1666667), wk =   0.0092593
        k(  122) = (   0.3333333  -0.5000000  -0.0000000), wk =   0.0185185
        k(  123) = (   0.3333333  -0.5000000   0.3333333), wk =   0.0092593
        k(  124) = (   0.4166667   0.4166667   0.0000000), wk =   0.0046296
        k(  125) = (   0.4166667   0.4166667   0.3333333), wk =   0.0046296
        k(  126) = (   0.4166667   0.4166667  -0.5000000), wk =   0.0046296
        k(  127) = (   0.4166667  -0.5000000   0.0000000), wk =   0.0092593
        k(  128) = (   0.4166667  -0.5000000   0.1666667), wk =   0.0092593
        k(  129) = (   0.4166667  -0.5000000   0.3333333), wk =   0.0092593
        k(  130) = (   0.4166667  -0.4166667  -0.0000000), wk =   0.0023148
        k(  131) = (   0.4166667  -0.4166667   0.1666667), wk =   0.0046296
        k(  132) = (   0.4166667  -0.4166667   0.3333333), wk =   0.0046296
        k(  133) = (   0.4166667  -0.4166667  -0.5000000), wk =   0.0023148
        k(  134) = (  -0.5000000  -0.5000000  -0.0000000), wk =   0.0023148
        k(  135) = (  -0.5000000  -0.5000000   0.1666667), wk =   0.0046296

     Dense  grid:   112387 G-vectors     FFT dimensions: (  48,  48, 108)

     Smooth grid:    39727 G-vectors     FFT dimensions: (  36,  36,  72)

     Dynamical RAM for                 wfc:       2.20 MB

     Dynamical RAM for     wfc (w. buffer):     595.40 MB

     Dynamical RAM for             U proj.:       0.76 MB

     Dynamical RAM for  U proj. (w. buff.):     205.31 MB

     Dynamical RAM for           str. fact:       5.14 MB

     Dynamical RAM for           local pot:       0.00 MB

     Dynamical RAM for          nlocal pot:       6.82 MB

     Dynamical RAM for                qrad:      10.55 MB

     Dynamical RAM for          rho,v,vnew:      21.68 MB

     Dynamical RAM for               rhoin:       7.23 MB

     Dynamical RAM for            rho*nmix:      54.88 MB

     Dynamical RAM for           G-vectors:       6.73 MB

     Dynamical RAM for          h,s,v(r/c):       0.15 MB

     Dynamical RAM for          <psi|beta>:       0.04 MB

     Dynamical RAM for                 psi:       4.39 MB

     Dynamical RAM for                hpsi:       4.39 MB

     Dynamical RAM for                spsi:       4.39 MB

     Dynamical RAM for      wfcinit/wfcrot:       4.41 MB

     Dynamical RAM for           addusdens:     324.11 MB

     Dynamical RAM for          addusforce:     327.56 MB

     Dynamical RAM for         addusstress:     347.27 MB

     Estimated static dynamical RAM per process >     877.11 MB

     Estimated max dynamical RAM per process >       1.25 GB

     Check: negative core charge=   -0.000004
     Generating pointlists ...
     new r_m :   0.3720 (alat units)  2.5367 (a.u.) for type    1
     new r_m :   0.2742 (alat units)  1.8695 (a.u.) for type    2
     new r_m :   0.2742 (alat units)  1.8695 (a.u.) for type    3

     Initial potential from superposition of free atoms

     starting charge      46.9791, renormalised to      47.0000

     negative rho (up, down):  6.773E-04 2.988E-04

     HUBBARD ENERGY =    0.3440  (Ry)

     STARTING HUBBARD OCCUPATIONS:

     =================== HUBBARD OCCUPATIONS ===================
     ------------------------ ATOM    2 ------------------------
     Tr[ns(  2)] (up, down, total) =   3.00000  0.00000  3.00000
     Atomic magnetic moment for atom   2 =   3.00000
     SPIN  1
     eigenvalues:
       0.600  0.600  0.600  0.600  0.600
     eigenvectors (columns):
       1.000  0.000  0.000  0.000  0.000
       0.000  1.000  0.000  0.000  0.000
       0.000  0.000  1.000  0.000  0.000
       0.000  0.000  0.000  1.000  0.000
       0.000  0.000  0.000  0.000  1.000
     occupation matrix ns (before diag.):
       0.600  0.000  0.000  0.000  0.000
       0.000  0.600  0.000  0.000  0.000
       0.000  0.000  0.600  0.000  0.000
       0.000  0.000  0.000  0.600  0.000
       0.000  0.000  0.000  0.000  0.600
     SPIN  2
     eigenvalues:
       0.000  0.000  0.000  0.000  0.000
     eigenvectors (columns):
       1.000  0.000  0.000  0.000  0.000
       0.000  1.000  0.000  0.000  0.000
       0.000  0.000  1.000  0.000  0.000
       0.000  0.000  0.000  1.000  0.000
       0.000  0.000  0.000  0.000  1.000
     occupation matrix ns (before diag.):
       0.000  0.000  0.000  0.000  0.000
       0.000  0.000  0.000  0.000  0.000
       0.000  0.000  0.000  0.000  0.000
       0.000  0.000  0.000  0.000  0.000
       0.000  0.000  0.000  0.000  0.000
     ------------------------ ATOM    3 ------------------------
     Tr[ns(  3)] (up, down, total) =   3.00000  0.00000  3.00000
     Atomic magnetic moment for atom   3 =   3.00000
     SPIN  1
     eigenvalues:
       0.600  0.600  0.600  0.600  0.600
     eigenvectors (columns):
       1.000  0.000  0.000  0.000  0.000
       0.000  1.000  0.000  0.000  0.000
       0.000  0.000  1.000  0.000  0.000
       0.000  0.000  0.000  1.000  0.000
       0.000  0.000  0.000  0.000  1.000
     occupation matrix ns (before diag.):
       0.600  0.000  0.000  0.000  0.000
       0.000  0.600  0.000  0.000  0.000
       0.000  0.000  0.600  0.000  0.000
       0.000  0.000  0.000  0.600  0.000
       0.000  0.000  0.000  0.000  0.600
     SPIN  2
     eigenvalues:
       0.000  0.000  0.000  0.000  0.000
     eigenvectors (columns):
       1.000  0.000  0.000  0.000  0.000
       0.000  1.000  0.000  0.000  0.000
       0.000  0.000  1.000  0.000  0.000
       0.000  0.000  0.000  1.000  0.000
       0.000  0.000  0.000  0.000  1.000
     occupation matrix ns (before diag.):
       0.000  0.000  0.000  0.000  0.000
       0.000  0.000  0.000  0.000  0.000
       0.000  0.000  0.000  0.000  0.000
       0.000  0.000  0.000  0.000  0.000
       0.000  0.000  0.000  0.000  0.000

     Number of occupied Hubbard levels =    6.0000

     Atomic wfc used for Hubbard projectors are orthogonalized

     Starting wfcs are   36 randomized atomic wfcs
     Checking if some PAW data can be deallocated... 

     total cpu time spent up to now is        4.8 secs

     Self-consistent Calculation
[tb_dev] Currently allocated     6.35E-01 Mbytes, locked:    0 /   3
[tb_pin] Currently allocated     0.00E+00 Mbytes, locked:    0 /   0

     iteration #  1     ecut=    60.00 Ry     beta= 0.40
     Davidson diagonalization with overlap

---- Real-time Memory Report at c_bands before calling an iterative solver
          1356 MiB given to the printing process from OS
             0 MiB allocation reported by mallinfo(arena+hblkhd)
        494588 MiB available memory on the node where the printing process lives
     GPU memory used/free/total (MiB): 1662 / 63282 / 64944
------------------
     ethr =  1.00E-02,  avg # of iterations =  2.8

     =================== HUBBARD OCCUPATIONS ===================
     ------------------------ ATOM    2 ------------------------
     Tr[ns(  2)] (up, down, total) =   4.00268  0.34512  4.34780
     Atomic magnetic moment for atom   2 =   3.65757
     SPIN  1
     eigenvalues:
       0.757  0.767  0.767  0.813  0.899
     eigenvectors (columns):
       0.000 -0.000 -0.000 -1.000  0.000
      -0.000 -0.262 -0.965  0.000 -0.000
      -0.000 -0.965  0.262  0.000 -0.000
      -0.000  0.000  0.000 -0.000 -1.000
       1.000 -0.000 -0.000  0.000 -0.000
     occupation matrix ns (before diag.):
       0.813 -0.000 -0.000 -0.000 -0.000
      -0.000  0.767 -0.000  0.000  0.000
      -0.000 -0.000  0.767  0.000  0.000
      -0.000  0.000  0.000  0.899  0.000
      -0.000  0.000  0.000  0.000  0.757
     SPIN  2
     eigenvalues:
       0.044  0.044  0.079  0.089  0.089
     eigenvectors (columns):
      -1.000 -0.000 -0.000 -0.000  0.000
      -0.000 -0.000 -0.000  0.246 -0.969
      -0.000 -0.000 -0.000  0.969  0.246
      -0.000 -0.000  1.000  0.000 -0.000
      -0.000  1.000  0.000  0.000 -0.000
     occupation matrix ns (before diag.):
       0.044 -0.000 -0.000 -0.000 -0.000
      -0.000  0.089 -0.000  0.000  0.000
      -0.000 -0.000  0.089  0.000  0.000
      -0.000  0.000  0.000  0.079  0.000
      -0.000  0.000  0.000  0.000  0.044
     ------------------------ ATOM    3 ------------------------
     Tr[ns(  3)] (up, down, total) =   4.00268  0.34512  4.34780
     Atomic magnetic moment for atom   3 =   3.65757
     SPIN  1
     eigenvalues:
       0.757  0.767  0.767  0.813  0.899
     eigenvectors (columns):
       0.000 -0.000 -0.000 -1.000  0.000
      -0.000 -0.262 -0.965  0.000 -0.000
      -0.000 -0.965  0.262  0.000 -0.000
      -0.000  0.000  0.000 -0.000 -1.000
       1.000 -0.000 -0.000  0.000 -0.000
     occupation matrix ns (before diag.):
       0.813 -0.000 -0.000 -0.000 -0.000
      -0.000  0.767 -0.000  0.000  0.000
      -0.000 -0.000  0.767  0.000  0.000
      -0.000  0.000  0.000  0.899  0.000
      -0.000  0.000  0.000  0.000  0.757
     SPIN  2
     eigenvalues:
       0.044  0.044  0.079  0.089  0.089
     eigenvectors (columns):
      -1.000 -0.000 -0.000 -0.000  0.000
      -0.000 -0.000 -0.000  0.246 -0.969
      -0.000 -0.000 -0.000  0.969  0.246
      -0.000 -0.000  1.000  0.000 -0.000
      -0.000  1.000  0.000  0.000 -0.000
     occupation matrix ns (before diag.):
       0.044 -0.000 -0.000 -0.000 -0.000
      -0.000  0.089 -0.000  0.000  0.000
      -0.000 -0.000  0.089  0.000  0.000
      -0.000  0.000  0.000  0.079  0.000
      -0.000  0.000  0.000  0.000  0.044

     Number of occupied Hubbard levels =    8.6956

     negative rho (up, down):  1.487E-04 1.284E-03

     HUBBARD ENERGY =    0.3164  (Ry)

     total cpu time spent up to now is        8.6 secs

     total energy              =    -448.73546396 Ry
     estimated scf accuracy    <       0.78391590 Ry

     total magnetization       =     7.00 Bohr mag/cell
     absolute magnetization    =     7.72 Bohr mag/cell
[tb_dev] Currently allocated     0.00E+00 Mbytes, locked:    0 /   0
[tb_pin] Currently allocated     0.00E+00 Mbytes, locked:    0 /   0

     iteration #  2     ecut=    60.00 Ry     beta= 0.40
     Davidson diagonalization with overlap

---- Real-time Memory Report at c_bands before calling an iterative solver
          1387 MiB given to the printing process from OS
             0 MiB allocation reported by mallinfo(arena+hblkhd)
        494556 MiB available memory on the node where the printing process lives
     GPU memory used/free/total (MiB): 1698 / 63246 / 64944
------------------
     ethr =  1.67E-03,  avg # of iterations =  6.2

     =================== HUBBARD OCCUPATIONS ===================
     ------------------------ ATOM    2 ------------------------
     Tr[ns(  2)] (up, down, total) =   3.33608  0.25915  3.59523
     Atomic magnetic moment for atom   2 =   3.07692
     SPIN  1
     eigenvalues:
       0.575  0.575  0.661  0.728  0.797
     eigenvectors (columns):
      -0.000 -0.000 -0.000  1.000 -0.000
      -0.257 -0.966 -0.000 -0.000  0.000
      -0.966  0.257 -0.000 -0.000 -0.000
      -0.000  0.000  0.000  0.000  1.000
       0.000  0.000 -1.000 -0.000  0.000
     occupation matrix ns (before diag.):
       0.728 -0.000 -0.000 -0.000 -0.000
      -0.000  0.575 -0.000  0.000  0.000
      -0.000 -0.000  0.575 -0.000  0.000
      -0.000  0.000 -0.000  0.797  0.000
      -0.000  0.000  0.000  0.000  0.661
     SPIN  2
     eigenvalues:
       0.024  0.032  0.067  0.068  0.068
     eigenvectors (columns):
       0.000  1.000  0.000  0.000  0.000
      -0.000  0.000  0.000 -0.261 -0.965
      -0.000  0.000  0.000 -0.965  0.261
      -0.000  0.000 -1.000 -0.000 -0.000
       1.000 -0.000 -0.000 -0.000 -0.000
     occupation matrix ns (before diag.):
       0.032 -0.000 -0.000 -0.000 -0.000
      -0.000  0.068 -0.000  0.000  0.000
      -0.000 -0.000  0.068  0.000  0.000
      -0.000  0.000  0.000  0.067  0.000
      -0.000  0.000  0.000  0.000  0.024
     ------------------------ ATOM    3 ------------------------
     Tr[ns(  3)] (up, down, total) =   3.33608  0.25915  3.59523
     Atomic magnetic moment for atom   3 =   3.07692
     SPIN  1
     eigenvalues:
       0.575  0.575  0.661  0.728  0.797
     eigenvectors (columns):
      -0.000 -0.000 -0.000  1.000 -0.000
      -0.257 -0.966 -0.000 -0.000  0.000
      -0.966  0.257 -0.000 -0.000 -0.000
      -0.000  0.000  0.000  0.000  1.000
       0.000  0.000 -1.000 -0.000  0.000
     occupation matrix ns (before diag.):
       0.728 -0.000 -0.000 -0.000 -0.000
      -0.000  0.575 -0.000  0.000  0.000
      -0.000 -0.000  0.575 -0.000  0.000
      -0.000  0.000 -0.000  0.797  0.000
      -0.000  0.000  0.000  0.000  0.661
     SPIN  2
     eigenvalues:
       0.024  0.032  0.067  0.068  0.068
     eigenvectors (columns):
       0.000  1.000  0.000  0.000  0.000
      -0.000  0.000  0.000 -0.261 -0.965
      -0.000  0.000  0.000 -0.965  0.261
      -0.000  0.000 -1.000 -0.000 -0.000
       1.000 -0.000 -0.000 -0.000 -0.000
     occupation matrix ns (before diag.):
       0.032 -0.000 -0.000 -0.000 -0.000
      -0.000  0.068 -0.000  0.000  0.000
      -0.000 -0.000  0.068  0.000  0.000
      -0.000  0.000  0.000  0.067  0.000
      -0.000  0.000  0.000  0.000  0.024

     Number of occupied Hubbard levels =    7.1905

     negative rho (up, down):  1.188E-04 1.870E-03

     HUBBARD ENERGY =    0.3321  (Ry)

     total cpu time spent up to now is       14.8 secs

     total energy              =    -448.87962306 Ry
     estimated scf accuracy    <       0.99157709 Ry

     total magnetization       =     6.62 Bohr mag/cell
     absolute magnetization    =     6.77 Bohr mag/cell
[tb_dev] Currently allocated     0.00E+00 Mbytes, locked:    0 /   0
[tb_pin] Currently allocated     0.00E+00 Mbytes, locked:    0 /   0

     iteration #  3     ecut=    60.00 Ry     beta= 0.40
     Davidson diagonalization with overlap

---- Real-time Memory Report at c_bands before calling an iterative solver
          1403 MiB given to the printing process from OS
             0 MiB allocation reported by mallinfo(arena+hblkhd)
        494540 MiB available memory on the node where the printing process lives
     GPU memory used/free/total (MiB): 1698 / 63246 / 64944
------------------
     ethr =  1.67E-03,  avg # of iterations =  2.6

     =================== HUBBARD OCCUPATIONS ===================
     ------------------------ ATOM    2 ------------------------
     Tr[ns(  2)] (up, down, total) =   3.75514  0.28692  4.04206
     Atomic magnetic moment for atom   2 =   3.46822
     SPIN  1
     eigenvalues:
       0.695  0.697  0.697  0.772  0.895
     eigenvectors (columns):
       0.000 -0.000  0.000 -1.000 -0.000
      -0.000 -0.256  0.967  0.000  0.000
      -0.000 -0.967 -0.256  0.000 -0.000
      -0.000  0.000 -0.000 -0.000  1.000
       1.000 -0.000  0.000  0.000  0.000
     occupation matrix ns (before diag.):
       0.772 -0.000 -0.000 -0.000 -0.000
      -0.000  0.697 -0.000  0.000  0.000
      -0.000 -0.000  0.697 -0.000  0.000
      -0.000  0.000 -0.000  0.895  0.000
      -0.000  0.000  0.000  0.000  0.695
     SPIN  2
     eigenvalues:
       0.033  0.036  0.064  0.077  0.077
     eigenvectors (columns):
       0.000  1.000 -0.000 -0.000 -0.000
      -0.000  0.000 -0.000  0.251  0.968
      -0.000  0.000 -0.000  0.968 -0.251
      -0.000  0.000  1.000  0.000  0.000
       1.000 -0.000  0.000  0.000  0.000
     occupation matrix ns (before diag.):
       0.036 -0.000 -0.000 -0.000 -0.000
      -0.000  0.077 -0.000  0.000  0.000
      -0.000 -0.000  0.077  0.000  0.000
      -0.000  0.000  0.000  0.064  0.000
      -0.000  0.000  0.000  0.000  0.033
     ------------------------ ATOM    3 ------------------------
     Tr[ns(  3)] (up, down, total) =   3.75514  0.28692  4.04206
     Atomic magnetic moment for atom   3 =   3.46822
     SPIN  1
     eigenvalues:
       0.695  0.697  0.697  0.772  0.895
     eigenvectors (columns):
       0.000 -0.000  0.000 -1.000 -0.000
      -0.000 -0.256  0.967  0.000  0.000
      -0.000 -0.967 -0.256  0.000 -0.000
      -0.000  0.000 -0.000 -0.000  1.000
       1.000 -0.000  0.000  0.000  0.000
     occupation matrix ns (before diag.):
       0.772 -0.000 -0.000 -0.000 -0.000
      -0.000  0.697 -0.000  0.000  0.000
      -0.000 -0.000  0.697 -0.000  0.000
      -0.000  0.000 -0.000  0.895  0.000
      -0.000  0.000  0.000  0.000  0.695
     SPIN  2
     eigenvalues:
       0.033  0.036  0.064  0.077  0.077
     eigenvectors (columns):
       0.000  1.000 -0.000 -0.000 -0.000
      -0.000  0.000 -0.000  0.251  0.968
      -0.000  0.000 -0.000  0.968 -0.251
      -0.000  0.000  1.000  0.000  0.000
       1.000 -0.000  0.000  0.000  0.000
     occupation matrix ns (before diag.):
       0.036 -0.000 -0.000 -0.000 -0.000
      -0.000  0.077 -0.000  0.000  0.000
      -0.000 -0.000  0.077  0.000  0.000
      -0.000  0.000  0.000  0.064  0.000
      -0.000  0.000  0.000  0.000  0.033

     Number of occupied Hubbard levels =    8.0841

     negative rho (up, down):  0.000E+00 4.700E-03

     HUBBARD ENERGY =    0.3369  (Ry)

     total cpu time spent up to now is       18.4 secs

     total energy              =    -449.05102563 Ry
     estimated scf accuracy    <       0.06898667 Ry

     total magnetization       =     6.99 Bohr mag/cell
     absolute magnetization    =     7.47 Bohr mag/cell
[tb_dev] Currently allocated     0.00E+00 Mbytes, locked:    0 /   0
[tb_pin] Currently allocated     0.00E+00 Mbytes, locked:    0 /   0

     iteration #  4     ecut=    60.00 Ry     beta= 0.40
     Davidson diagonalization with overlap

---- Real-time Memory Report at c_bands before calling an iterative solver
          1405 MiB given to the printing process from OS
             0 MiB allocation reported by mallinfo(arena+hblkhd)
        494542 MiB available memory on the node where the printing process lives
     GPU memory used/free/total (MiB): 1698 / 63246 / 64944
------------------
     ethr =  1.47E-04,  avg # of iterations =  4.9

     =================== HUBBARD OCCUPATIONS ===================
     ------------------------ ATOM    2 ------------------------
     Tr[ns(  2)] (up, down, total) =   3.73459  0.29750  4.03209
     Atomic magnetic moment for atom   2 =   3.43709
     SPIN  1
     eigenvalues:
       0.677  0.677  0.695  0.777  0.908
     eigenvectors (columns):
      -0.000 -0.000 -0.000  1.000 -0.000
      -0.256 -0.967 -0.000 -0.000  0.000
      -0.967  0.256 -0.000 -0.000 -0.000
       0.000  0.000  0.000  0.000  1.000
       0.000  0.000 -1.000 -0.000  0.000
     occupation matrix ns (before diag.):
       0.777 -0.000 -0.000 -0.000 -0.000
      -0.000  0.677 -0.000  0.000  0.000
      -0.000 -0.000  0.677 -0.000  0.000
      -0.000  0.000 -0.000  0.908  0.000
      -0.000  0.000  0.000  0.000  0.695
     SPIN  2
     eigenvalues:
       0.032  0.037  0.067  0.081  0.081
     eigenvectors (columns):
       0.000  1.000  0.000 -0.000  0.000
      -0.000  0.000  0.000  0.251 -0.968
      -0.000  0.000  0.000  0.968  0.251
      -0.000  0.000 -1.000  0.000 -0.000
       1.000 -0.000 -0.000  0.000 -0.000
     occupation matrix ns (before diag.):
       0.037 -0.000 -0.000 -0.000 -0.000
      -0.000  0.081 -0.000  0.000  0.000
      -0.000 -0.000  0.081  0.000  0.000
      -0.000  0.000  0.000  0.067  0.000
      -0.000  0.000  0.000  0.000  0.032
     ------------------------ ATOM    3 ------------------------
     Tr[ns(  3)] (up, down, total) =   3.73459  0.29750  4.03209
     Atomic magnetic moment for atom   3 =   3.43709
     SPIN  1
     eigenvalues:
       0.677  0.677  0.695  0.777  0.908
     eigenvectors (columns):
      -0.000 -0.000 -0.000  1.000 -0.000
      -0.256 -0.967 -0.000 -0.000  0.000
      -0.967  0.256 -0.000 -0.000 -0.000
       0.000  0.000  0.000  0.000  1.000
       0.000  0.000 -1.000 -0.000  0.000
     occupation matrix ns (before diag.):
       0.777 -0.000 -0.000 -0.000 -0.000
      -0.000  0.677 -0.000  0.000  0.000
      -0.000 -0.000  0.677 -0.000  0.000
      -0.000  0.000 -0.000  0.908  0.000
      -0.000  0.000  0.000  0.000  0.695
     SPIN  2
     eigenvalues:
       0.032  0.037  0.067  0.081  0.081
     eigenvectors (columns):
       0.000  1.000  0.000 -0.000  0.000
      -0.000  0.000  0.000  0.251 -0.968
      -0.000  0.000  0.000  0.968  0.251
      -0.000  0.000 -1.000  0.000 -0.000
       1.000 -0.000 -0.000  0.000 -0.000
     occupation matrix ns (before diag.):
       0.037 -0.000 -0.000 -0.000 -0.000
      -0.000  0.081 -0.000  0.000  0.000
      -0.000 -0.000  0.081  0.000  0.000
      -0.000  0.000  0.000  0.067  0.000
      -0.000  0.000  0.000  0.000  0.032

     Number of occupied Hubbard levels =    8.0642

     negative rho (up, down):  0.000E+00 5.129E-03

     HUBBARD ENERGY =    0.3378  (Ry)

     total cpu time spent up to now is       23.7 secs

     total energy              =    -449.06310633 Ry
     estimated scf accuracy    <       0.00651262 Ry

     total magnetization       =     6.94 Bohr mag/cell
     absolute magnetization    =     7.51 Bohr mag/cell
[tb_dev] Currently allocated     0.00E+00 Mbytes, locked:    0 /   0
[tb_pin] Currently allocated     0.00E+00 Mbytes, locked:    0 /   0

     iteration #  5     ecut=    60.00 Ry     beta= 0.40
     Davidson diagonalization with overlap

---- Real-time Memory Report at c_bands before calling an iterative solver
          1405 MiB given to the printing process from OS
             0 MiB allocation reported by mallinfo(arena+hblkhd)
        494539 MiB available memory on the node where the printing process lives
     GPU memory used/free/total (MiB): 1698 / 63246 / 64944
------------------
     c_bands:  1 eigenvalues not converged
     c_bands:  1 eigenvalues not converged
     c_bands:  1 eigenvalues not converged
     c_bands:  1 eigenvalues not converged
     c_bands:  1 eigenvalues not converged
     c_bands:  1 eigenvalues not converged
     c_bands:  2 eigenvalues not converged
     c_bands:  2 eigenvalues not converged
     c_bands:  1 eigenvalues not converged
     c_bands:  1 eigenvalues not converged
     c_bands:  2 eigenvalues not converged
     ethr =  1.39E-05,  avg # of iterations =  8.5

     =================== HUBBARD OCCUPATIONS ===================
     ------------------------ ATOM    2 ------------------------
     Tr[ns(  2)] (up, down, total) =   3.72546  0.30239  4.02785
     Atomic magnetic moment for atom   2 =   3.42307
     SPIN  1
     eigenvalues:
       0.668  0.668  0.693  0.782  0.914
     eigenvectors (columns):
      -0.000 -0.000 -0.000  1.000 -0.000
      -0.256 -0.967 -0.000 -0.000  0.000
      -0.967  0.256 -0.000 -0.000 -0.000
       0.000  0.000  0.000  0.000  1.000
       0.000  0.000 -1.000 -0.000  0.000
     occupation matrix ns (before diag.):
       0.782 -0.000 -0.000 -0.000 -0.000
      -0.000  0.668 -0.000  0.000  0.000
      -0.000 -0.000  0.668 -0.000  0.000
      -0.000  0.000 -0.000  0.914  0.000
      -0.000  0.000  0.000  0.000  0.693
     SPIN  2
     eigenvalues:
       0.032  0.037  0.068  0.083  0.083
     eigenvectors (columns):
       0.000  1.000  0.000 -0.000  0.000
      -0.000  0.000  0.000  0.251 -0.968
      -0.000  0.000  0.000  0.968  0.251
      -0.000  0.000 -1.000  0.000 -0.000
       1.000 -0.000 -0.000  0.000 -0.000
     occupation matrix ns (before diag.):
       0.037 -0.000 -0.000 -0.000 -0.000
      -0.000  0.083 -0.000  0.000  0.000
      -0.000 -0.000  0.083  0.000  0.000
      -0.000  0.000  0.000  0.068  0.000
      -0.000  0.000  0.000  0.000  0.032
     ------------------------ ATOM    3 ------------------------
     Tr[ns(  3)] (up, down, total) =   3.72546  0.30239  4.02785
     Atomic magnetic moment for atom   3 =   3.42307
     SPIN  1
     eigenvalues:
       0.668  0.668  0.693  0.782  0.914
     eigenvectors (columns):
      -0.000 -0.000 -0.000  1.000 -0.000
      -0.256 -0.967 -0.000 -0.000  0.000
      -0.967  0.256 -0.000 -0.000 -0.000
       0.000  0.000  0.000  0.000  1.000
       0.000  0.000 -1.000 -0.000  0.000
     occupation matrix ns (before diag.):
       0.782 -0.000 -0.000 -0.000 -0.000
      -0.000  0.668 -0.000  0.000  0.000
      -0.000 -0.000  0.668 -0.000  0.000
      -0.000  0.000 -0.000  0.914  0.000
      -0.000  0.000  0.000  0.000  0.693
     SPIN  2
     eigenvalues:
       0.032  0.037  0.068  0.083  0.083
     eigenvectors (columns):
       0.000  1.000  0.000 -0.000  0.000
      -0.000  0.000  0.000  0.251 -0.968
      -0.000  0.000  0.000  0.968  0.251
      -0.000  0.000 -1.000  0.000 -0.000
       1.000 -0.000 -0.000  0.000 -0.000
     occupation matrix ns (before diag.):
       0.037 -0.000 -0.000 -0.000 -0.000
      -0.000  0.083 -0.000  0.000  0.000
      -0.000 -0.000  0.083  0.000  0.000
      -0.000  0.000  0.000  0.068  0.000
      -0.000  0.000  0.000  0.000  0.032

     Number of occupied Hubbard levels =    8.0557

     negative rho (up, down):  0.000E+00 5.444E-03

     HUBBARD ENERGY =    0.3392  (Ry)

     total cpu time spent up to now is       31.5 secs

     total energy              =    -449.06541171 Ry
     estimated scf accuracy    <       0.00157789 Ry

     total magnetization       =     6.92 Bohr mag/cell
     absolute magnetization    =     7.52 Bohr mag/cell
[tb_dev] Currently allocated     0.00E+00 Mbytes, locked:    0 /   0
[tb_pin] Currently allocated     0.00E+00 Mbytes, locked:    0 /   0

     iteration #  6     ecut=    60.00 Ry     beta= 0.40
     Davidson diagonalization with overlap

---- Real-time Memory Report at c_bands before calling an iterative solver
          1408 MiB given to the printing process from OS
             0 MiB allocation reported by mallinfo(arena+hblkhd)
        494535 MiB available memory on the node where the printing process lives
     GPU memory used/free/total (MiB): 1698 / 63246 / 64944
------------------
     c_bands:  1 eigenvalues not converged
     c_bands:  1 eigenvalues not converged
     c_bands:  1 eigenvalues not converged
     c_bands:  1 eigenvalues not converged
     c_bands:  2 eigenvalues not converged
     c_bands:  1 eigenvalues not converged
     c_bands:  1 eigenvalues not converged
     c_bands:  1 eigenvalues not converged
     c_bands:  1 eigenvalues not converged
     c_bands:  1 eigenvalues not converged
     ethr =  3.36E-06,  avg # of iterations =  6.5

     =================== HUBBARD OCCUPATIONS ===================
     ------------------------ ATOM    2 ------------------------
     Tr[ns(  2)] (up, down, total) =   3.71117  0.30385  4.01502
     Atomic magnetic moment for atom   2 =   3.40732
     SPIN  1
     eigenvalues:
       0.657  0.657  0.692  0.785  0.920
     eigenvectors (columns):
      -0.000 -0.000 -0.000  1.000 -0.000
      -0.257 -0.967 -0.000 -0.000  0.000
      -0.967  0.257 -0.000 -0.000 -0.000
      -0.000  0.000  0.000  0.000  1.000
       0.000  0.000 -1.000 -0.000  0.000
     occupation matrix ns (before diag.):
       0.785 -0.000 -0.000 -0.000 -0.000
      -0.000  0.657 -0.000  0.000  0.000
      -0.000 -0.000  0.657 -0.000  0.000
      -0.000  0.000 -0.000  0.920  0.000
      -0.000  0.000  0.000  0.000  0.692
     SPIN  2
     eigenvalues:
       0.032  0.037  0.068  0.084  0.084
     eigenvectors (columns):
       0.000  1.000  0.000 -0.000  0.000
      -0.000  0.000  0.000  0.251 -0.968
      -0.000  0.000  0.000  0.968  0.251
      -0.000  0.000 -1.000  0.000 -0.000
       1.000 -0.000 -0.000  0.000 -0.000
     occupation matrix ns (before diag.):
       0.037 -0.000 -0.000 -0.000 -0.000
      -0.000  0.084 -0.000  0.000  0.000
      -0.000 -0.000  0.084  0.000  0.000
      -0.000  0.000  0.000  0.068  0.000
      -0.000  0.000  0.000  0.000  0.032
     ------------------------ ATOM    3 ------------------------
     Tr[ns(  3)] (up, down, total) =   3.71117  0.30385  4.01502
     Atomic magnetic moment for atom   3 =   3.40732
     SPIN  1
     eigenvalues:
       0.657  0.657  0.692  0.785  0.920
     eigenvectors (columns):
      -0.000 -0.000 -0.000  1.000 -0.000
      -0.257 -0.967 -0.000 -0.000  0.000
      -0.967  0.257 -0.000 -0.000 -0.000
      -0.000  0.000  0.000  0.000  1.000
       0.000  0.000 -1.000 -0.000  0.000
     occupation matrix ns (before diag.):
       0.785 -0.000 -0.000 -0.000 -0.000
      -0.000  0.657 -0.000  0.000  0.000
      -0.000 -0.000  0.657 -0.000  0.000
      -0.000  0.000 -0.000  0.920  0.000
      -0.000  0.000  0.000  0.000  0.692
     SPIN  2
     eigenvalues:
       0.032  0.037  0.068  0.084  0.084
     eigenvectors (columns):
       0.000  1.000  0.000 -0.000  0.000
      -0.000  0.000  0.000  0.251 -0.968
      -0.000  0.000  0.000  0.968  0.251
      -0.000  0.000 -1.000  0.000 -0.000
       1.000 -0.000 -0.000  0.000 -0.000
     occupation matrix ns (before diag.):
       0.037 -0.000 -0.000 -0.000 -0.000
      -0.000  0.084 -0.000  0.000  0.000
      -0.000 -0.000  0.084  0.000  0.000
      -0.000  0.000  0.000  0.068  0.000
      -0.000  0.000  0.000  0.000  0.032

     Number of occupied Hubbard levels =    8.0300

     negative rho (up, down):  0.000E+00 5.405E-03

     HUBBARD ENERGY =    0.3399  (Ry)

     total cpu time spent up to now is       37.9 secs

     total energy              =    -449.06585032 Ry
     estimated scf accuracy    <       0.00075233 Ry

     total magnetization       =     6.90 Bohr mag/cell
     absolute magnetization    =     7.51 Bohr mag/cell
[tb_dev] Currently allocated     0.00E+00 Mbytes, locked:    0 /   0
[tb_pin] Currently allocated     0.00E+00 Mbytes, locked:    0 /   0

     iteration #  7     ecut=    60.00 Ry     beta= 0.40
     Davidson diagonalization with overlap

---- Real-time Memory Report at c_bands before calling an iterative solver
          1411 MiB given to the printing process from OS
             0 MiB allocation reported by mallinfo(arena+hblkhd)
        494532 MiB available memory on the node where the printing process lives
     GPU memory used/free/total (MiB): 1698 / 63246 / 64944
------------------
     c_bands:  1 eigenvalues not converged
     c_bands:  2 eigenvalues not converged
     c_bands:  1 eigenvalues not converged
     c_bands:  2 eigenvalues not converged
     c_bands:  1 eigenvalues not converged
     ethr =  1.60E-06,  avg # of iterations =  6.6

     =================== HUBBARD OCCUPATIONS ===================
     ------------------------ ATOM    2 ------------------------
     Tr[ns(  2)] (up, down, total) =   3.72390  0.30738  4.03128
     Atomic magnetic moment for atom   2 =   3.41652
     SPIN  1
     eigenvalues:
       0.657  0.657  0.696  0.792  0.923
     eigenvectors (columns):
      -0.000 -0.000 -0.000  1.000 -0.000
      -0.257 -0.966 -0.000 -0.000  0.000
      -0.966  0.257 -0.000 -0.000 -0.000
      -0.000  0.000  0.000  0.000  1.000
       0.000  0.000 -1.000 -0.000  0.000
     occupation matrix ns (before diag.):
       0.792 -0.000 -0.000 -0.000 -0.000
      -0.000  0.657 -0.000  0.000  0.000
      -0.000 -0.000  0.657 -0.000  0.000
      -0.000  0.000 -0.000  0.923  0.000
      -0.000  0.000  0.000  0.000  0.696
     SPIN  2
     eigenvalues:
       0.032  0.037  0.069  0.085  0.085
     eigenvectors (columns):
       0.000  1.000  0.000 -0.000  0.000
      -0.000  0.000  0.000  0.250 -0.968
      -0.000  0.000  0.000  0.968  0.250
      -0.000  0.000 -1.000  0.000 -0.000
       1.000 -0.000 -0.000  0.000 -0.000
     occupation matrix ns (before diag.):
       0.037 -0.000 -0.000 -0.000 -0.000
      -0.000  0.085 -0.000  0.000  0.000
      -0.000 -0.000  0.085  0.000  0.000
      -0.000  0.000  0.000  0.069  0.000
      -0.000  0.000  0.000  0.000  0.032
     ------------------------ ATOM    3 ------------------------
     Tr[ns(  3)] (up, down, total) =   3.72390  0.30738  4.03128
     Atomic magnetic moment for atom   3 =   3.41652
     SPIN  1
     eigenvalues:
       0.657  0.657  0.696  0.792  0.923
     eigenvectors (columns):
      -0.000 -0.000 -0.000  1.000 -0.000
      -0.257 -0.966 -0.000 -0.000  0.000
      -0.966  0.257 -0.000 -0.000 -0.000
      -0.000  0.000  0.000  0.000  1.000
       0.000  0.000 -1.000 -0.000  0.000
     occupation matrix ns (before diag.):
       0.792 -0.000 -0.000 -0.000 -0.000
      -0.000  0.657 -0.000  0.000  0.000
      -0.000 -0.000  0.657 -0.000  0.000
      -0.000  0.000 -0.000  0.923  0.000
      -0.000  0.000  0.000  0.000  0.696
     SPIN  2
     eigenvalues:
       0.032  0.037  0.069  0.085  0.085
     eigenvectors (columns):
       0.000  1.000  0.000 -0.000  0.000
      -0.000  0.000  0.000  0.250 -0.968
      -0.000  0.000  0.000  0.968  0.250
      -0.000  0.000 -1.000  0.000 -0.000
       1.000 -0.000 -0.000  0.000 -0.000
     occupation matrix ns (before diag.):
       0.037 -0.000 -0.000 -0.000 -0.000
      -0.000  0.085 -0.000  0.000  0.000
      -0.000 -0.000  0.085  0.000  0.000
      -0.000  0.000  0.000  0.069  0.000
      -0.000  0.000  0.000  0.000  0.032

     Number of occupied Hubbard levels =    8.0626

     negative rho (up, down):  0.000E+00 5.358E-03

     HUBBARD ENERGY =    0.3403  (Ry)

     total cpu time spent up to now is       44.5 secs

     total energy              =    -449.06612284 Ry
     estimated scf accuracy    <       0.00037322 Ry

     total magnetization       =     6.91 Bohr mag/cell
     absolute magnetization    =     7.54 Bohr mag/cell
[tb_dev] Currently allocated     0.00E+00 Mbytes, locked:    0 /   0
[tb_pin] Currently allocated     0.00E+00 Mbytes, locked:    0 /   0

     iteration #  8     ecut=    60.00 Ry     beta= 0.40
     Davidson diagonalization with overlap

---- Real-time Memory Report at c_bands before calling an iterative solver
          1413 MiB given to the printing process from OS
             0 MiB allocation reported by mallinfo(arena+hblkhd)
        494529 MiB available memory on the node where the printing process lives
     GPU memory used/free/total (MiB): 1698 / 63246 / 64944
------------------
     ethr =  7.94E-07,  avg # of iterations =  3.9

     =================== HUBBARD OCCUPATIONS ===================
     ------------------------ ATOM    2 ------------------------
     Tr[ns(  2)] (up, down, total) =   3.71342  0.30937  4.02279
     Atomic magnetic moment for atom   2 =   3.40406
     SPIN  1
     eigenvalues:
       0.648  0.648  0.697  0.796  0.925
     eigenvectors (columns):
      -0.000 -0.000 -0.000  1.000 -0.000
      -0.258 -0.966 -0.000 -0.000  0.000
      -0.966  0.258 -0.000 -0.000 -0.000
      -0.000  0.000  0.000  0.000  1.000
       0.000  0.000 -1.000 -0.000  0.000
     occupation matrix ns (before diag.):
       0.796 -0.000 -0.000 -0.000 -0.000
      -0.000  0.648 -0.000  0.000  0.000
      -0.000 -0.000  0.648 -0.000  0.000
      -0.000  0.000 -0.000  0.925  0.000
      -0.000  0.000  0.000  0.000  0.697
     SPIN  2
     eigenvalues:
       0.032  0.037  0.069  0.086  0.086
     eigenvectors (columns):
       0.000  1.000  0.000 -0.000  0.000
      -0.000  0.000  0.000  0.250 -0.968
      -0.000  0.000  0.000  0.968  0.250
      -0.000  0.000 -1.000  0.000 -0.000
       1.000 -0.000 -0.000  0.000 -0.000
     occupation matrix ns (before diag.):
       0.037 -0.000 -0.000 -0.000 -0.000
      -0.000  0.086 -0.000  0.000  0.000
      -0.000 -0.000  0.086  0.000  0.000
      -0.000  0.000  0.000  0.069  0.000
      -0.000  0.000  0.000  0.000  0.032
     ------------------------ ATOM    3 ------------------------
     Tr[ns(  3)] (up, down, total) =   3.71342  0.30937  4.02279
     Atomic magnetic moment for atom   3 =   3.40406
     SPIN  1
     eigenvalues:
       0.648  0.648  0.697  0.796  0.925
     eigenvectors (columns):
      -0.000 -0.000 -0.000  1.000 -0.000
      -0.258 -0.966 -0.000 -0.000  0.000
      -0.966  0.258 -0.000 -0.000 -0.000
      -0.000  0.000  0.000  0.000  1.000
       0.000  0.000 -1.000 -0.000  0.000
     occupation matrix ns (before diag.):
       0.796 -0.000 -0.000 -0.000 -0.000
      -0.000  0.648 -0.000  0.000  0.000
      -0.000 -0.000  0.648 -0.000  0.000
      -0.000  0.000 -0.000  0.925  0.000
      -0.000  0.000  0.000  0.000  0.697
     SPIN  2
     eigenvalues:
       0.032  0.037  0.069  0.086  0.086
     eigenvectors (columns):
       0.000  1.000  0.000 -0.000  0.000
      -0.000  0.000  0.000  0.250 -0.968
      -0.000  0.000  0.000  0.968  0.250
      -0.000  0.000 -1.000  0.000 -0.000
       1.000 -0.000 -0.000  0.000 -0.000
     occupation matrix ns (before diag.):
       0.037 -0.000 -0.000 -0.000 -0.000
      -0.000  0.086 -0.000  0.000  0.000
      -0.000 -0.000  0.086  0.000  0.000
      -0.000  0.000  0.000  0.069  0.000
      -0.000  0.000  0.000  0.000  0.032

     Number of occupied Hubbard levels =    8.0456

     negative rho (up, down):  0.000E+00 5.340E-03

     HUBBARD ENERGY =    0.3404  (Ry)

     total cpu time spent up to now is       49.0 secs

     total energy              =    -449.06623836 Ry
     estimated scf accuracy    <       0.00006051 Ry

     total magnetization       =     6.89 Bohr mag/cell
     absolute magnetization    =     7.52 Bohr mag/cell
[tb_dev] Currently allocated     0.00E+00 Mbytes, locked:    0 /   0
[tb_pin] Currently allocated     0.00E+00 Mbytes, locked:    0 /   0

     iteration #  9     ecut=    60.00 Ry     beta= 0.40
     Davidson diagonalization with overlap

---- Real-time Memory Report at c_bands before calling an iterative solver
          1417 MiB given to the printing process from OS
             0 MiB allocation reported by mallinfo(arena+hblkhd)
        494525 MiB available memory on the node where the printing process lives
     GPU memory used/free/total (MiB): 1698 / 63246 / 64944
------------------
     ethr =  1.29E-07,  avg # of iterations =  5.3

     =================== HUBBARD OCCUPATIONS ===================
     ------------------------ ATOM    2 ------------------------
     Tr[ns(  2)] (up, down, total) =   3.70544  0.31240  4.01784
     Atomic magnetic moment for atom   2 =   3.39304
     SPIN  1
     eigenvalues:
       0.641  0.641  0.698  0.798  0.926
     eigenvectors (columns):
      -0.000 -0.000 -0.000  1.000 -0.000
      -0.258 -0.966 -0.000 -0.000  0.000
      -0.966  0.258 -0.000 -0.000 -0.000
      -0.000  0.000  0.000  0.000  1.000
       0.000  0.000 -1.000 -0.000  0.000
     occupation matrix ns (before diag.):
       0.798 -0.000 -0.000 -0.000 -0.000
      -0.000  0.641 -0.000  0.000  0.000
      -0.000 -0.000  0.641 -0.000  0.000
      -0.000  0.000 -0.000  0.926  0.000
      -0.000  0.000  0.000  0.000  0.698
     SPIN  2
     eigenvalues:
       0.032  0.037  0.070  0.087  0.087
     eigenvectors (columns):
       0.000  1.000  0.000 -0.000  0.000
      -0.000  0.000  0.000  0.250 -0.968
      -0.000  0.000  0.000  0.968  0.250
      -0.000  0.000 -1.000  0.000 -0.000
       1.000 -0.000 -0.000  0.000 -0.000
     occupation matrix ns (before diag.):
       0.037 -0.000 -0.000 -0.000 -0.000
      -0.000  0.087 -0.000  0.000  0.000
      -0.000 -0.000  0.087  0.000  0.000
      -0.000  0.000  0.000  0.070  0.000
      -0.000  0.000  0.000  0.000  0.032
     ------------------------ ATOM    3 ------------------------
     Tr[ns(  3)] (up, down, total) =   3.70544  0.31240  4.01784
     Atomic magnetic moment for atom   3 =   3.39304
     SPIN  1
     eigenvalues:
       0.641  0.641  0.698  0.798  0.926
     eigenvectors (columns):
      -0.000 -0.000 -0.000  1.000 -0.000
      -0.258 -0.966 -0.000 -0.000  0.000
      -0.966  0.258 -0.000 -0.000 -0.000
      -0.000  0.000  0.000  0.000  1.000
       0.000  0.000 -1.000 -0.000  0.000
     occupation matrix ns (before diag.):
       0.798 -0.000 -0.000 -0.000 -0.000
      -0.000  0.641 -0.000  0.000  0.000
      -0.000 -0.000  0.641 -0.000  0.000
      -0.000  0.000 -0.000  0.926  0.000
      -0.000  0.000  0.000  0.000  0.698
     SPIN  2
     eigenvalues:
       0.032  0.037  0.070  0.087  0.087
     eigenvectors (columns):
       0.000  1.000  0.000 -0.000  0.000
      -0.000  0.000  0.000  0.250 -0.968
      -0.000  0.000  0.000  0.968  0.250
      -0.000  0.000 -1.000  0.000 -0.000
       1.000 -0.000 -0.000  0.000 -0.000
     occupation matrix ns (before diag.):
       0.037 -0.000 -0.000 -0.000 -0.000
      -0.000  0.087 -0.000  0.000  0.000
      -0.000 -0.000  0.087  0.000  0.000
      -0.000  0.000  0.000  0.070  0.000
      -0.000  0.000  0.000  0.000  0.032

     Number of occupied Hubbard levels =    8.0357

     negative rho (up, down):  0.000E+00 5.338E-03

     HUBBARD ENERGY =    0.3411  (Ry)

     total cpu time spent up to now is       54.6 secs

     total energy              =    -449.06630590 Ry
     estimated scf accuracy    <       0.00001887 Ry

     total magnetization       =     6.87 Bohr mag/cell
     absolute magnetization    =     7.49 Bohr mag/cell
[tb_dev] Currently allocated     0.00E+00 Mbytes, locked:    0 /   0
[tb_pin] Currently allocated     0.00E+00 Mbytes, locked:    0 /   0

     iteration # 10     ecut=    60.00 Ry     beta= 0.40
     Davidson diagonalization with overlap

---- Real-time Memory Report at c_bands before calling an iterative solver
          1424 MiB given to the printing process from OS
             0 MiB allocation reported by mallinfo(arena+hblkhd)
        494519 MiB available memory on the node where the printing process lives
     GPU memory used/free/total (MiB): 1698 / 63246 / 64944
------------------
     c_bands:  1 eigenvalues not converged
     c_bands:  1 eigenvalues not converged
     ethr =  4.01E-08,  avg # of iterations =  7.0

     =================== HUBBARD OCCUPATIONS ===================
     ------------------------ ATOM    2 ------------------------
     Tr[ns(  2)] (up, down, total) =   3.70750  0.31545  4.02295
     Atomic magnetic moment for atom   2 =   3.39206
     SPIN  1
     eigenvalues:
       0.639  0.639  0.701  0.801  0.927
     eigenvectors (columns):
      -0.000 -0.000 -0.000  1.000 -0.000
      -0.258 -0.966 -0.000 -0.000  0.000
      -0.966  0.258 -0.000 -0.000 -0.000
      -0.000  0.000  0.000  0.000  1.000
       0.000  0.000 -1.000 -0.000  0.000
     occupation matrix ns (before diag.):
       0.801 -0.000 -0.000 -0.000 -0.000
      -0.000  0.639 -0.000  0.000  0.000
      -0.000 -0.000  0.639 -0.000  0.000
      -0.000  0.000 -0.000  0.927  0.000
      -0.000  0.000  0.000  0.000  0.701
     SPIN  2
     eigenvalues:
       0.032  0.037  0.071  0.088  0.088
     eigenvectors (columns):
       0.000  1.000  0.000 -0.000  0.000
      -0.000  0.000  0.000  0.250 -0.968
      -0.000  0.000  0.000  0.968  0.250
      -0.000  0.000 -1.000  0.000 -0.000
       1.000 -0.000 -0.000  0.000 -0.000
     occupation matrix ns (before diag.):
       0.037 -0.000 -0.000 -0.000 -0.000
      -0.000  0.088 -0.000  0.000  0.000
      -0.000 -0.000  0.088  0.000  0.000
      -0.000  0.000  0.000  0.071  0.000
      -0.000  0.000  0.000  0.000  0.032
     ------------------------ ATOM    3 ------------------------
     Tr[ns(  3)] (up, down, total) =   3.70750  0.31545  4.02295
     Atomic magnetic moment for atom   3 =   3.39206
     SPIN  1
     eigenvalues:
       0.639  0.639  0.701  0.801  0.927
     eigenvectors (columns):
      -0.000 -0.000 -0.000  1.000 -0.000
      -0.258 -0.966 -0.000 -0.000  0.000
      -0.966  0.258 -0.000 -0.000 -0.000
      -0.000  0.000  0.000  0.000  1.000
       0.000  0.000 -1.000 -0.000  0.000
     occupation matrix ns (before diag.):
       0.801 -0.000 -0.000 -0.000 -0.000
      -0.000  0.639 -0.000  0.000  0.000
      -0.000 -0.000  0.639 -0.000  0.000
      -0.000  0.000 -0.000  0.927  0.000
      -0.000  0.000  0.000  0.000  0.701
     SPIN  2
     eigenvalues:
       0.032  0.037  0.071  0.088  0.088
     eigenvectors (columns):
       0.000  1.000  0.000 -0.000  0.000
      -0.000  0.000  0.000  0.250 -0.968
      -0.000  0.000  0.000  0.968  0.250
      -0.000  0.000 -1.000  0.000 -0.000
       1.000 -0.000 -0.000  0.000 -0.000
     occupation matrix ns (before diag.):
       0.037 -0.000 -0.000 -0.000 -0.000
      -0.000  0.088 -0.000  0.000  0.000
      -0.000 -0.000  0.088  0.000  0.000
      -0.000  0.000  0.000  0.071  0.000
      -0.000  0.000  0.000  0.000  0.032

     Number of occupied Hubbard levels =    8.0459

     negative rho (up, down):  0.000E+00 5.335E-03

     HUBBARD ENERGY =    0.3419  (Ry)

     total cpu time spent up to now is       61.4 secs

     total energy              =    -449.06628569 Ry
     estimated scf accuracy    <       0.00012008 Ry

     total magnetization       =     6.87 Bohr mag/cell
     absolute magnetization    =     7.48 Bohr mag/cell
[tb_dev] Currently allocated     0.00E+00 Mbytes, locked:    0 /   0
[tb_pin] Currently allocated     0.00E+00 Mbytes, locked:    0 /   0

     iteration # 11     ecut=    60.00 Ry     beta= 0.40
     Davidson diagonalization with overlap

---- Real-time Memory Report at c_bands before calling an iterative solver
          1424 MiB given to the printing process from OS
             0 MiB allocation reported by mallinfo(arena+hblkhd)
        494519 MiB available memory on the node where the printing process lives
     GPU memory used/free/total (MiB): 1698 / 63246 / 64944
------------------
     ethr =  4.01E-08,  avg # of iterations =  6.4

     =================== HUBBARD OCCUPATIONS ===================
     ------------------------ ATOM    2 ------------------------
     Tr[ns(  2)] (up, down, total) =   3.69420  0.31822  4.01242
     Atomic magnetic moment for atom   2 =   3.37598
     SPIN  1
     eigenvalues:
       0.632  0.632  0.701  0.802  0.927
     eigenvectors (columns):
      -0.000 -0.000 -0.000  1.000 -0.000
      -0.259 -0.966 -0.000 -0.000  0.000
      -0.966  0.259 -0.000 -0.000 -0.000
      -0.000  0.000  0.000  0.000  1.000
       0.000  0.000 -1.000 -0.000  0.000
     occupation matrix ns (before diag.):
       0.802 -0.000 -0.000 -0.000 -0.000
      -0.000  0.632 -0.000  0.000  0.000
      -0.000 -0.000  0.632 -0.000  0.000
      -0.000  0.000 -0.000  0.927  0.000
      -0.000  0.000  0.000  0.000  0.701
     SPIN  2
     eigenvalues:
       0.032  0.037  0.072  0.088  0.088
     eigenvectors (columns):
       0.000  1.000  0.000 -0.000  0.000
      -0.000  0.000  0.000  0.250 -0.968
      -0.000  0.000  0.000  0.968  0.250
      -0.000  0.000 -1.000  0.000 -0.000
       1.000 -0.000 -0.000  0.000 -0.000
     occupation matrix ns (before diag.):
       0.037 -0.000 -0.000 -0.000 -0.000
      -0.000  0.088 -0.000  0.000  0.000
      -0.000 -0.000  0.088  0.000  0.000
      -0.000  0.000  0.000  0.072  0.000
      -0.000  0.000  0.000  0.000  0.032
     ------------------------ ATOM    3 ------------------------
     Tr[ns(  3)] (up, down, total) =   3.69420  0.31822  4.01242
[...]
     0.0000   0.0000   0.0000   0.0000   0.0000

          k = 0.3594 0.3594 0.2358 (  5912 PWs)   bands (ev):

   -53.1378 -53.1353 -27.5034 -27.4905 -27.2736 -27.2611 -26.8755 -26.8718
   -22.8594  -6.5000  -6.4892  -6.4236  -5.1233  -5.0655   3.1546   3.1610
     4.0577   4.3037   4.3873   5.0438   9.3771   9.9444  10.6391  10.8342
    11.5432  11.7620  12.8004  12.8608  13.5250

     occupation numbers 
     1.0000   1.0000   1.0000   1.0000   1.0000   1.0000   1.0000   1.0000
     1.0000   1.0000   1.0000   1.0000   1.0000   1.0000   1.0000   1.0000
     1.0000   1.0000   1.0000   1.0000   0.0000   0.0000   0.0000   0.0000
     0.0000   0.0000   0.0000   0.0000   0.0000

          k = 0.3594 0.3594 0.4245 (  5901 PWs)   bands (ev):

   -53.1380 -53.1349 -27.5035 -27.4905 -27.2736 -27.2611 -26.8755 -26.8718
   -22.8593  -6.5005  -6.4892  -6.4226  -5.1417  -5.0447   3.1254   3.1657
     4.1163   4.2878   4.3489   5.0731   9.4992   9.8069  10.6939  10.7321
    11.6152  11.6945  12.7971  12.8335  13.4468

     occupation numbers 
     1.0000   1.0000   1.0000   1.0000   1.0000   1.0000   1.0000   1.0000
     1.0000   1.0000   1.0000   1.0000   1.0000   1.0000   1.0000   1.0000
     1.0000   1.0000   1.0000   1.0000   0.0000   0.0000   0.0000   0.0000
     0.0000   0.0000   0.0000   0.0000   0.0000

          k = 0.3594 0.3594-0.0472 (  5916 PWs)   bands (ev):

   -53.1381 -53.1345 -27.5035 -27.4904 -27.2736 -27.2611 -26.8755 -26.8718
   -22.8591  -6.5009  -6.4891  -6.4217  -5.1552  -5.0288   3.0968   3.1706
     4.1991   4.2718   4.2822   5.1129   9.3784   9.9456  10.5616  10.8410
    11.6121  11.6716  12.7949  12.8081  13.4211

     occupation numbers 
     1.0000   1.0000   1.0000   1.0000   1.0000   1.0000   1.0000   1.0000
     1.0000   1.0000   1.0000   1.0000   1.0000   1.0000   1.0000   1.0000
     1.0000   1.0000   1.0000   1.0000   0.0000   0.0000   0.0000   0.0000
     0.0000   0.0000   0.0000   0.0000   0.0000

          k = 0.3594-0.4313-0.0236 (  5920 PWs)   bands (ev):

   -53.1364 -53.1357 -27.5014 -27.5014 -27.2636 -27.2636 -26.8736 -26.8736
   -22.8588  -6.5031  -6.4884  -6.4209  -5.1325  -5.0370   3.1027   3.1275
     4.1593   4.2789   4.3231   5.0857   9.2900   9.9291  10.5507  10.7916
    11.5505  11.7004  12.8577  12.8743  13.6467

     occupation numbers 
     1.0000   1.0000   1.0000   1.0000   1.0000   1.0000   1.0000   1.0000
     1.0000   1.0000   1.0000   1.0000   1.0000   1.0000   1.0000   1.0000
     1.0000   1.0000   1.0000   1.0000   0.0000   0.0000   0.0000   0.0000
     0.0000   0.0000   0.0000   0.0000   0.0000

          k = 0.3594-0.4313 0.0708 (  5911 PWs)   bands (ev):

   -53.1363 -53.1358 -27.5014 -27.5014 -27.2636 -27.2636 -26.8736 -26.8736
   -22.8588  -6.5031  -6.4884  -6.4209  -5.1322  -5.0373   3.1059   3.1243
     4.1663   4.2667   4.3304   5.0811   9.3487   9.8605  10.5809  10.7553
    11.5739  11.6838  12.8595  12.8725  13.6445

     occupation numbers 
     1.0000   1.0000   1.0000   1.0000   1.0000   1.0000   1.0000   1.0000
     1.0000   1.0000   1.0000   1.0000   1.0000   1.0000   1.0000   1.0000
     1.0000   1.0000   1.0000   1.0000   0.0000   0.0000   0.0000   0.0000
     0.0000   0.0000   0.0000   0.0000   0.0000

          k = 0.3594-0.4313 0.1651 (  5904 PWs)   bands (ev):

   -53.1362 -53.1360 -27.5014 -27.5014 -27.2636 -27.2636 -26.8736 -26.8736
   -22.8588  -6.5031  -6.4884  -6.4209  -5.1319  -5.0377   3.1113   3.1189
     4.1747   4.2550   4.3361   5.0765   9.4285   9.7713  10.6335  10.6966
    11.6087  11.6555  12.8621  12.8700  13.6427

     occupation numbers 
     1.0000   1.0000   1.0000   1.0000   1.0000   1.0000   1.0000   1.0000
     1.0000   1.0000   1.0000   1.0000   1.0000   1.0000   1.0000   1.0000
     1.0000   1.0000   1.0000   1.0000   0.0000   0.0000   0.0000   0.0000
     0.0000   0.0000   0.0000   0.0000   0.0000

          k = 0.3594-0.3594 0.0000 (  5914 PWs)   bands (ev):

   -53.1381 -53.1345 -27.5035 -27.4904 -27.2736 -27.2611 -26.8755 -26.8718
   -22.8591  -6.5009  -6.4891  -6.4216  -5.1571  -5.0265   3.0925   3.1714
     4.2313   4.2522   4.2693   5.1199   9.3488   9.9823  10.5398  10.8601
    11.5972  11.6796  12.7959  12.8031  13.4185

     occupation numbers 
     1.0000   1.0000   1.0000   1.0000   1.0000   1.0000   1.0000   1.0000
     1.0000   1.0000   1.0000   1.0000   1.0000   1.0000   1.0000   1.0000
     1.0000   1.0000   1.0000   1.0000   0.0000   0.0000   0.0000   0.0000
     0.0000   0.0000   0.0000   0.0000   0.0000

          k = 0.3594-0.3594 0.0943 (  5905 PWs)   bands (ev):

   -53.1380 -53.1347 -27.5035 -27.4905 -27.2736 -27.2611 -26.8755 -26.8718
   -22.8592  -6.5007  -6.4891  -6.4221  -5.1499  -5.0352   3.1089   3.1685
     4.1572   4.2786   4.3177   5.0949   9.4509   9.8605  10.6182  10.7923
    11.6489  11.6495  12.7952  12.8191  13.4295

     occupation numbers 
     1.0000   1.0000   1.0000   1.0000   1.0000   1.0000   1.0000   1.0000
     1.0000   1.0000   1.0000   1.0000   1.0000   1.0000   1.0000   1.0000
     1.0000   1.0000   1.0000   1.0000   0.0000   0.0000   0.0000   0.0000
     0.0000   0.0000   0.0000   0.0000   0.0000

          k = 0.3594-0.3594 0.1887 (  5909 PWs)   bands (ev):

   -53.1379 -53.1351 -27.5034 -27.4905 -27.2736 -27.2611 -26.8755 -26.8718
   -22.8594  -6.5002  -6.4892  -6.4232  -5.1321  -5.0556   3.1422   3.1630
     4.0814   4.2970   4.3727   5.0548   9.4487   9.8628  10.6769  10.7725
    11.5765  11.7347  12.7991  12.8488  13.4792

     occupation numbers 
     1.0000   1.0000   1.0000   1.0000   1.0000   1.0000   1.0000   1.0000
     1.0000   1.0000   1.0000   1.0000   1.0000   1.0000   1.0000   1.0000
     1.0000   1.0000   1.0000   1.0000   0.0000   0.0000   0.0000   0.0000
     0.0000   0.0000   0.0000   0.0000   0.0000

          k = 0.3594-0.3594-0.2830 (  5912 PWs)   bands (ev):

   -53.1378 -53.1353 -27.5034 -27.4905 -27.2736 -27.2611 -26.8755 -26.8718
   -22.8595  -6.4999  -6.4892  -6.4238  -5.1193  -5.0698   3.1592   3.1603
     4.0492   4.3062   4.3921   5.0404   9.3481   9.9782  10.6257  10.8581
    11.5296  11.7717  12.8009  12.8654  13.6989

     occupation numbers 
     1.0000   1.0000   1.0000   1.0000   1.0000   1.0000   1.0000   1.0000
     1.0000   1.0000   1.0000   1.0000   1.0000   1.0000   1.0000   1.0000
     1.0000   1.0000   1.0000   1.0000   0.0000   0.0000   0.0000   0.0000
     0.0000   0.0000   0.0000   0.0000   0.0000

          k =-0.4313-0.4313-0.2830 (  5914 PWs)   bands (ev):

   -53.1362 -53.1352 -27.5060 -27.5060 -27.2597 -27.2597 -26.8736 -26.8736
   -22.8582  -6.4963  -6.4962  -6.4196  -5.1275  -5.0253   3.0835   3.0921
     4.2339   4.2500   4.2826   5.0905   9.2062   9.8940  10.5179  10.7329
    11.5332  11.6842  12.9279  12.9364  13.6781

     occupation numbers 
     1.0000   1.0000   1.0000   1.0000   1.0000   1.0000   1.0000   1.0000
     1.0000   1.0000   1.0000   1.0000   1.0000   1.0000   1.0000   1.0000
     1.0000   1.0000   1.0000   1.0000   0.0000   0.0000   0.0000   0.0000
     0.0000   0.0000   0.0000   0.0000   0.0000

          k =-0.4313-0.4313-0.1887 (  5926 PWs)   bands (ev):

   -53.1360 -53.1355 -27.5060 -27.5060 -27.2597 -27.2597 -26.8736 -26.8736
   -22.8582  -6.4963  -6.4963  -6.4196  -5.1270  -5.0258   3.0856   3.0898
     4.2395   4.2582   4.2746   5.0799   9.3264   9.7578  10.5664  10.6728
    11.5762  11.6504  12.9299  12.9344  13.9075

     occupation numbers 
     1.0000   1.0000   1.0000   1.0000   1.0000   1.0000   1.0000   1.0000
     1.0000   1.0000   1.0000   1.0000   1.0000   1.0000   1.0000   1.0000
     1.0000   1.0000   1.0000   1.0000   0.0000   0.0000   0.0000   0.0000
     0.0000   0.0000   0.0000   0.0000   0.0000

     the Fermi energy is     8.5717 ev

!    total energy              =    -449.19943915 Ry
     estimated scf accuracy    <          5.6E-12 Ry
     smearing contrib. (-TS)   =      -0.00090117 Ry
     internal energy E=F+TS    =    -449.19853798 Ry

     The total energy is F=E-TS. E is the sum of the following terms:
     one-electron contribution =    -242.33304088 Ry
     hartree contribution      =     136.00972662 Ry
     xc contribution           =     -67.30333048 Ry
     ewald contribution        =    -221.98718444 Ry
     Hubbard energy            =       0.31328815 Ry
     one-center paw contrib.   =     -53.89799696 Ry
      -> PAW hartree energy AE =      37.17408939 Ry
      -> PAW hartree energy PS =     -36.96098488 Ry
      -> PAW xc energy AE      =     -64.53909981 Ry
      -> PAW xc energy PS      =      10.42799834 Ry
      -> total E_H with PAW    =     136.22283113 Ry
      -> total E_XC with PAW   =    -121.41443194 Ry

     total magnetization       =     7.00 Bohr mag/cell
     absolute magnetization    =     7.74 Bohr mag/cell

     convergence has been achieved in  18 iterations

     negative rho (up, down):  0.000E+00 5.711E-03
     force_hub    :    140.27s CPU    141.27s WALL (      16 calls)
     dndtau       :    126.41s CPU    127.32s WALL (   64800 calls)
     dprojdtau    :     42.46s CPU     42.79s WALL (  129600 calls)
     calc_doverla :     37.47s CPU     37.74s WALL (   64800 calls)
     matel_dSdtau :     57.79s CPU     58.19s WALL (  129600 calls)

     Forces acting on atoms (cartesian axes, Ry/au):

     atom    1 type  1   force =     0.00000000    0.00000000    0.00000000
     atom    2 type  3   force =     0.00000000    0.00000000    0.00000000
     atom    3 type  3   force =     0.00000000    0.00000000    0.00000000
     atom    4 type  2   force =    -0.00000000    0.00000000    0.00003502
     atom    5 type  2   force =     0.00000000   -0.00000000   -0.00003502
     The non-local contrib.  to forces
     atom    1 type  1   force =     0.00000000    0.00000000    0.00000000
     atom    2 type  3   force =     0.00000000    0.00000000    0.00000000
     atom    3 type  3   force =     0.00000000    0.00000000    0.00000000
     atom    4 type  2   force =    -0.00000000    0.00000000    0.15425457
     atom    5 type  2   force =     0.00000000   -0.00000000   -0.15425457
     The ionic contribution  to forces
     atom    1 type  1   force =    -0.00000435   -0.00000435    0.00000000
     atom    2 type  3   force =    -0.00000987   -0.00001027   -0.00000150
     atom    3 type  3   force =    -0.00000964   -0.00000923    0.00000150
     atom    4 type  2   force =     0.00001189    0.00001209  -11.34388842
     atom    5 type  2   force =     0.00001196    0.00001176   11.34388842
     The local contribution  to forces
     atom    1 type  1   force =     0.00000000    0.00000000    0.00000000
     atom    2 type  3   force =     0.00000006    0.00000030    0.00000097
     atom    3 type  3   force =    -0.00000006   -0.00000030   -0.00000097
     atom    4 type  2   force =     0.00001230    0.00001224   11.19149141
     atom    5 type  2   force =     0.00001228    0.00001233  -11.19149141
     The core correction contribution to forces
     atom    1 type  1   force =    -0.00000000   -0.00000000    0.00000000
     atom    2 type  3   force =    -0.00000015    0.00000015   -0.00000000
     atom    3 type  3   force =     0.00000015   -0.00000015    0.00000000
     atom    4 type  2   force =    -0.00000129   -0.00000130   -0.00623694
     atom    5 type  2   force =    -0.00000146   -0.00000146    0.00623694
     The Hubbard contrib.    to forces
     atom    1 type  1   force =     0.00000000   -0.00000000   -0.00000000
     atom    2 type  3   force =     0.00000000    0.00000000    0.00000000
     atom    3 type  3   force =     0.00000000    0.00000000    0.00000000
     atom    4 type  2   force =    -0.00000000    0.00000000    0.00441237
     atom    5 type  2   force =     0.00000000   -0.00000000   -0.00441237
     The SCF correction term to forces
     atom    1 type  1   force =     0.00000000    0.00000000    0.00000000
     atom    2 type  3   force =     0.00000000    0.00000000   -0.00000000
     atom    3 type  3   force =     0.00000000    0.00000000    0.00000000
     atom    4 type  2   force =    -0.00000000   -0.00000000    0.00000203
     atom    5 type  2   force =    -0.00000000   -0.00000000   -0.00000203

     Total force =     0.000050     Total SCF correction =     0.000003


     Computing stress (Cartesian axis) and pressure


     negative rho (up, down):  0.000E+00 5.711E-03
     stres_hub    :    269.73s CPU    272.00s WALL (      16 calls)
     dprojdepsilo :    226.80s CPU    228.81s WALL (   38880 calls)
     dprojdeps1   :     31.25s CPU     31.53s WALL (   38880 calls)
     dprojdeps2   :     55.24s CPU     55.95s WALL (   38880 calls)
     dprojdeps3   :    140.09s CPU    141.19s WALL (   38880 calls)
          total   stress  (Ry/bohr**3)                   (kbar)     P=        0.36
   0.00000362  -0.00000000   0.00000000            0.53       -0.00        0.00
  -0.00000000   0.00000362  -0.00000000           -0.00        0.53       -0.00
   0.00000000  -0.00000000   0.00000020            0.00       -0.00        0.03

     kinetic stress (kbar)  14416.87     -0.00      0.00
                               -0.00  14416.86     -0.00
                                0.00     -0.00  14771.45

     local   stress (kbar) -20448.34     -0.00     -0.00
                               -0.00 -20448.34      0.00
                               -0.00      0.00  18387.53

     nonloc. stress (kbar)   2335.62     -0.00      0.00
                               -0.00   2335.62     -0.00
                                0.00     -0.00   2351.84

     hartree stress (kbar)  14685.48      0.00      0.00
                                0.00  14685.48     -0.00
                                0.00     -0.00  -2788.46

     exc-cor stress (kbar)   -641.29      0.00     -0.00
                                0.00   -641.29     -0.00
                               -0.00     -0.00   -642.07

     corecor stress (kbar)  -3064.57      0.00      0.00
                                0.00  -3064.57      0.00
                                0.00      0.00  -3068.15

     ewald   stress (kbar)  -7225.91     -0.00      0.00
                               -0.00  -7225.91     -0.00
                                0.00     -0.00 -28934.58

     hubbard stress (kbar)    -57.31      0.00     -0.00
                                0.00    -57.31      0.00
                               -0.00      0.00    -77.52

     DFT-D   stress (kbar)      0.00      0.00      0.00
                                0.00      0.00      0.00
                                0.00      0.00      0.00

     XDM     stress (kbar)      0.00      0.00      0.00
                                0.00      0.00      0.00
                                0.00      0.00      0.00

     dft-nl  stress (kbar)      0.00      0.00      0.00
                                0.00      0.00      0.00
                                0.00      0.00      0.00

     TS-vdW  stress (kbar)      0.00      0.00      0.00
                                0.00      0.00      0.00
                                0.00      0.00      0.00

     MDB     stress (kbar)      0.00      0.00      0.00
                                0.00      0.00      0.00
                                0.00      0.00      0.00

     3D-RISM stress (kbar)      0.00      0.00      0.00
                                0.00      0.00      0.00
                                0.00      0.00      0.00


     Writing all to output data dir ./out/aiida.save/ :
     XML data file, charge density, pseudopotentials, collected wavefunctions
 
     init_run     :      5.15s CPU      5.74s WALL (       2 calls)
     electrons    :   1056.89s CPU   1089.09s WALL (      16 calls)
     update_pot   :      0.89s CPU      0.90s WALL (      14 calls)
     forces       :    146.56s CPU    147.61s WALL (      16 calls)
     stress       :    288.26s CPU    290.66s WALL (      16 calls)

     Called by init_run:
     wfcinit      :      3.65s CPU      4.08s WALL (       2 calls)
     wfcinit:atom :      0.31s CPU      0.32s WALL (     540 calls)
     wfcinit:wfcr :      1.52s CPU      1.55s WALL (     540 calls)
     potinit      :      0.22s CPU      0.26s WALL (       2 calls)
     hinit0       :      0.92s CPU      0.97s WALL (       2 calls)

     Called by electrons:
     c_bands      :    905.72s CPU    934.21s WALL (     206 calls)
     sum_band     :    131.69s CPU    132.70s WALL (     206 calls)
     v_of_rho     :      1.44s CPU      1.51s WALL (     214 calls)
     v_h          :      0.41s CPU      0.43s WALL (     214 calls)
     v_xc         :      1.18s CPU      1.23s WALL (     246 calls)
     newd         :      4.76s CPU      4.86s WALL (     214 calls)
     PAW_pot      :      8.57s CPU      8.71s WALL (     228 calls)
     mix_rho      :      2.83s CPU      2.87s WALL (     206 calls)

     Called by c_bands:
     init_us_2    :     34.78s CPU     36.06s WALL (  137160 calls)
     cegterg      :    819.94s CPU    826.78s WALL (   55620 calls)

     Called by sum_band:
     sum_band:wei :      1.18s CPU      1.18s WALL (     206 calls)
     sum_band:loo :     82.09s CPU     82.78s WALL (     206 calls)
     sum_band:buf :     18.53s CPU     18.73s WALL (   55620 calls)
     sum_band:ini :     14.28s CPU     14.41s WALL (   55620 calls)
     sum_band:cal :      1.77s CPU      1.78s WALL (   59400 calls)
     sum_band:bec :     12.55s CPU     12.66s WALL (   59400 calls)
     addusdens    :     10.46s CPU     10.51s WALL (     206 calls)
                                       10.50s GPU  (     206 calls)
     addusd:skk   :      0.03s CPU      0.03s WALL (     618 calls)
                                        0.03s GPU  (     618 calls)

     Called by *egterg:
     cdiaghg      :    317.06s CPU    321.92s WALL (  327536 calls)
                                      319.79s GPU  (  327536 calls)
     cegterg:over :     83.51s CPU     84.46s WALL (  264896 calls)
     cegterg:upda :     49.51s CPU     49.83s WALL (  264896 calls)
     cegterg:last :      8.92s CPU      8.96s WALL (  137331 calls)
     h_psi        :    287.60s CPU    290.43s WALL (  321056 calls)
     s_psi        :     46.49s CPU     47.05s WALL (  342656 calls)
     g_psi        :      4.78s CPU      4.82s WALL (  264896 calls)

     Called by h_psi:
     h_psi:calbec :      5.46s CPU      5.50s WALL (  321056 calls)
     vloc_psi     :    147.95s CPU    151.81s WALL (  321056 calls)
                                      149.79s GPU  (  321056 calls)
     add_vuspsi   :     53.02s CPU     53.63s WALL (  321056 calls)
     vhpsi        :     72.23s CPU     73.06s WALL (  321056 calls)

     General routines
     calbec       :     49.24s CPU     49.80s WALL ( 2973292 calls)
     fft          :      1.59s CPU      1.79s WALL (    5988 calls)
                                        0.21s GPU  (    5560 calls)
     ffts         :      0.40s CPU      0.41s WALL (     840 calls)
                                        0.01s GPU  (     412 calls)
     fftw         :      8.35s CPU     78.80s WALL ( 1020584 calls)
                                       72.29s GPU  ( 1020584 calls)
     interpolate  :      2.21s CPU      2.23s WALL (     428 calls)
 
     Parallel routines

     Hubbard U routines
     new_ns       :     36.00s CPU     36.24s WALL (     206 calls)
     vhpsi        :     72.23s CPU     73.06s WALL (  321056 calls)
     force_hub    :    140.27s CPU    141.27s WALL (      16 calls)
     stres_hub    :    269.73s CPU    272.00s WALL (      16 calls)

     PAW routines
     PAW_pot      :      8.57s CPU      8.71s WALL (     228 calls)
     PAW_symme    :      0.10s CPU      0.10s WALL (     434 calls)
 
     PWSCF        :  25m11.94s CPU  26m 5.45s WALL

 
   This run was terminated on:  17:46:28  13Oct2025            

=------------------------------------------------------------------------------=
   JOB DONE.
=------------------------------------------------------------------------------=
