
     Program PWSCF v.7.4.1 starts on 18Oct2025 at 10: 7:58 

     This program is part of the open-source Quantum ESPRESSO suite
     for quantum simulation of materials; please cite
         "P. Giannozzi et al., J. Phys.:Condens. Matter 21 395502 (2009);
         "P. Giannozzi et al., J. Phys.:Condens. Matter 29 465901 (2017);
         "P. Giannozzi et al., J. Chem. Phys. 152 154105 (2020);
          URL http://www.quantum-espresso.org", 
     in publications or presentations arising from this work. More details at
     http://www.quantum-espresso.org/quote

     Parallel version (MPI & OpenMP), running on       1 processor cores
     Number of MPI processes:                 1
     Threads/MPI process:                     1

     MPI processes distributed on     1 nodes
     402409 MiB available memory on the printing compute node when the environment starts
 
     Reading input from pwscf.in
Warning: card &FCP ignored
Warning: card &RISM ignored

     Current dimensions of program PWSCF are:
     Max number of different atomic species (ntypx) = 10
     Max number of k-points (npk) =  40000
     Max angular momentum in pseudopotentials (lmaxx) =  4
     file O.pbesol-n-kjpaw_psl.0.1.UPF: wavefunction(s)  2P renormalized
 check tnoseh fnoseh  F    1.000000000000000     
     Message from routine setup:
     using ibrav=0 with symmetry is DISCOURAGED, use correct ibrav instead
 
     Subspace diagonalization in iterative solution of the eigenvalue problem:
     a serial algorithm will be used

 
     G-vector sticks info
     --------------------
     sticks:   dense  smooth     PW     G-vecs:    dense   smooth      PW
     Sum        5755    2877    791               664391   234735   33453
 
     Using Slab Decomposition
 


     bravais-lattice index     =            0
     lattice parameter (alat)  =      12.4659  a.u.
     unit-cell volume          =    4918.2054 (a.u.)^3
     number of atoms/cell      =           52
     number of atomic types    =            4
     number of electrons       =       348.00
     number of Kohn-Sham states=          209
     kinetic-energy cutoff     =      50.0000  Ry
     charge density cutoff     =     400.0000  Ry
     scf convergence threshold =      1.1E-08
     mixing beta               =       0.4000
     number of iterations used =            8  plain     mixing
     energy convergence thresh.=      5.6E-04
     force convergence thresh. =      1.0E-04
     press convergence thresh. =      5.0E-01
     Exchange-correlation= SLA  PW   PSX  PSC
                           (   1   4  10   8   0   0   0)
     nstep                     =          180


     GPU acceleration is ACTIVE.  1 visible GPUs per MPI rank
     GPU-aware MPI enabled


     GPU used by master process:

        Device Number: 0
        Device name: NVIDIA A100-SXM-64GB
        Compute capability : 80
        Ratio of single to double precision performance  : 2
        Memory Clock Rate (KHz): 1593000
        Memory Bus Width (bits): 4096
        Peak Memory Bandwidth (GB/s): ******
     Hubbard projectors: ortho-atomic
     Hubbard parameters of DFT+U (Dudarev formulation) in eV:
     U(V-3d) =  3.9000

     Internal variables: lda_plus_u = T, lda_plus_u_kind = 0

     celldm(1)=  12.465905  celldm(2)=   0.000000  celldm(3)=   0.000000
     celldm(4)=   0.000000  celldm(5)=   0.000000  celldm(6)=   0.000000

     crystal axes: (cart. coord. in units of alat)
               a(1) = (   1.000000   0.000000   0.000000 )  
               a(2) = (   0.000000   1.165160   0.000000 )  
               a(3) = (   0.000000   0.000000   2.178961 )  

     reciprocal axes: (cart. coord. in units 2 pi/alat)
               b(1) = (  1.000000  0.000000  0.000000 )  
               b(2) = (  0.000000  0.858251  0.000000 )  
               b(3) = (  0.000000  0.000000  0.458934 )  


     PseudoPot. # 1 for O  read from file:
     /leonardo_scratch/large/userexternal/nalghamd/mc_mace/GNoME-screening/2_space_group_DFT/pseudo_SSSP1.3_aiida/O.pbesol-n-kjpaw_psl.0.1.UPF
     MD5 check sum: 81d73d1479e654e5638b0319f0d6c2c7
     Pseudo is Projector augmented-wave + core cor, Zval =  6.0
     Generated using "atomic" code by A. Dal Corso  v.6.0 svn rev. 13079
     Shape of augmentation charge: BESSEL
     Using radial grid of 1095 points,  4 beta functions with: 
                l(1) =   0
                l(2) =   0
                l(3) =   1
                l(4) =   1
     Q(r) pseudized with 0 coefficients 


     PseudoPot. # 2 for P  read from file:
     /leonardo_scratch/large/userexternal/nalghamd/mc_mace/GNoME-screening/2_space_group_DFT/pseudo_SSSP1.3_aiida/P.pbesol-n-rrkjus_psl.1.0.0.UPF
     MD5 check sum: bbb94b1b16383820d6a769669b5d42db
     Pseudo is Ultrasoft + core correction, Zval =  5.0
     Generated using "atomic" code by A. Dal Corso  v.6.0 svn rev. 13079
     Using radial grid of 1147 points,  6 beta functions with: 
                l(1) =   0
                l(2) =   0
                l(3) =   1
                l(4) =   1
                l(5) =   2
                l(6) =   2
     Q(r) pseudized with 0 coefficients 


     PseudoPot. # 3 for Sr read from file:
     /leonardo_scratch/large/userexternal/nalghamd/mc_mace/GNoME-screening/2_space_group_DFT/pseudo_SSSP1.3_aiida/sr_pbesol_v1.uspp.F.UPF
     MD5 check sum: 635bff1625df5273dba4129a01ed8c82
     Pseudo is Ultrasoft + core correction, Zval = 10.0
     Generated by new atomic code, or converted to UPF format
     Using radial grid of  883 points,  6 beta functions with: 
                l(1) =   0
                l(2) =   0
                l(3) =   1
                l(4) =   1
                l(5) =   2
                l(6) =   2
     Q(r) pseudized with  6 coefficients,  rinner =    1.400   1.400   1.400
                                                       1.400   1.400

     PseudoPot. # 4 for V  read from file:
     /leonardo_scratch/large/userexternal/nalghamd/mc_mace/GNoME-screening/2_space_group_DFT/pseudo_SSSP1.3_aiida/v_pbesol_v1.4.uspp.F.UPF
     MD5 check sum: 72fa7d0034c41d8adc50bbc8c632b9f9
     Pseudo is Ultrasoft + core correction, Zval = 13.0
     Generated by new atomic code, or converted to UPF format
     Using radial grid of  853 points,  6 beta functions with: 
                l(1) =   0
                l(2) =   0
                l(3) =   1
                l(4) =   1
                l(5) =   2
                l(6) =   2
     Q(r) pseudized with  8 coefficients,  rinner =    1.100   1.100   1.100
                                                       1.100   1.100

     atomic species   valence    mass     pseudopotential
     O                 6.00    15.99940     O ( 1.00)
     P                 5.00    30.97376     P ( 1.00)
     Sr               10.00    87.62000     Sr( 1.00)
     V                13.00    50.94150     V ( 1.00)

     Starting magnetic structure 
     atomic species   magnetization
     O               0.100
     P               0.100
     Sr              0.100
     V               0.100

      8 Sym. Ops., with inversion, found ( 6 have fractional translation)


                                    s                        frac. trans.

      isym =  1     identity                                     

 cryst.   s( 1) = (     1          0          0      )
                  (     0          1          0      )
                  (     0          0          1      )

 cart.    s( 1) = (  1.0000000  0.0000000  0.0000000 )
                  (  0.0000000  1.0000000  0.0000000 )
                  (  0.0000000  0.0000000  1.0000000 )


      isym =  2     180 deg rotation - cart. axis [0,0,1]        

 cryst.   s( 2) = (    -1          0          0      )    f =(  0.5000000 )
                  (     0         -1          0      )       ( -0.5000000 )
                  (     0          0          1      )       (  0.5000000 )

 cart.    s( 2) = ( -1.0000000  0.0000000  0.0000000 )    f =(  0.5000000 )
                  (  0.0000000 -1.0000000  0.0000000 )       ( -0.5825801 )
                  (  0.0000000  0.0000000  1.0000000 )       (  1.0894807 )


      isym =  3     180 deg rotation - cart. axis [0,1,0]        

 cryst.   s( 3) = (    -1          0          0      )    f =(  0.0000000 )
                  (     0          1          0      )       (  0.5000000 )
                  (     0          0         -1      )       (  0.5000000 )

 cart.    s( 3) = ( -1.0000000  0.0000000  0.0000000 )    f =(  0.0000000 )
                  (  0.0000000  1.0000000  0.0000000 )       (  0.5825801 )
                  (  0.0000000  0.0000000 -1.0000000 )       (  1.0894807 )


      isym =  4     180 deg rotation - cart. axis [1,0,0]        

 cryst.   s( 4) = (     1          0          0      )    f =(  0.5000000 )
                  (     0         -1          0      )       (  0.0000000 )
                  (     0          0         -1      )       (  0.0000000 )

 cart.    s( 4) = (  1.0000000  0.0000000  0.0000000 )    f =(  0.5000000 )
                  (  0.0000000 -1.0000000  0.0000000 )       (  0.0000000 )
                  (  0.0000000  0.0000000 -1.0000000 )       (  0.0000000 )


      isym =  5     inversion                                    

 cryst.   s( 5) = (    -1          0          0      )
                  (     0         -1          0      )
                  (     0          0         -1      )

 cart.    s( 5) = ( -1.0000000  0.0000000  0.0000000 )
                  (  0.0000000 -1.0000000  0.0000000 )
                  (  0.0000000  0.0000000 -1.0000000 )


      isym =  6     inv. 180 deg rotation - cart. axis [0,0,1]   

 cryst.   s( 6) = (     1          0          0      )    f =(  0.5000000 )
                  (     0          1          0      )       (  0.5000000 )
                  (     0          0         -1      )       (  0.5000000 )

 cart.    s( 6) = (  1.0000000  0.0000000  0.0000000 )    f =(  0.5000000 )
                  (  0.0000000  1.0000000  0.0000000 )       (  0.5825801 )
                  (  0.0000000  0.0000000 -1.0000000 )       (  1.0894807 )


      isym =  7     inv. 180 deg rotation - cart. axis [0,1,0]   

 cryst.   s( 7) = (     1          0          0      )    f =(  0.0000000 )
                  (     0         -1          0      )       ( -0.5000000 )
                  (     0          0          1      )       (  0.5000000 )

 cart.    s( 7) = (  1.0000000  0.0000000  0.0000000 )    f =(  0.0000000 )
                  (  0.0000000 -1.0000000  0.0000000 )       ( -0.5825801 )
                  (  0.0000000  0.0000000  1.0000000 )       (  1.0894807 )


      isym =  8     inv. 180 deg rotation - cart. axis [1,0,0]   

 cryst.   s( 8) = (    -1          0          0      )    f =(  0.5000000 )
                  (     0          1          0      )       (  0.0000000 )
                  (     0          0          1      )       (  0.0000000 )

 cart.    s( 8) = ( -1.0000000  0.0000000  0.0000000 )    f =(  0.5000000 )
                  (  0.0000000  1.0000000  0.0000000 )       (  0.0000000 )
                  (  0.0000000  0.0000000  1.0000000 )       (  0.0000000 )


   Cartesian axes

     site n.     atom                  positions (alat units)
         1        Sr     tau(   1) = (   0.7500000   1.0185994   1.6990648  )
         2        Sr     tau(   2) = (   0.7500000   0.7291410   0.6095841  )
         3        Sr     tau(   3) = (   0.2500000   0.1465608   0.4798966  )
         4        Sr     tau(   4) = (   0.2500000   0.4360193   1.5693774  )
         5        V      tau(   5) = (   0.7500000   0.4019372   1.9256070  )
         6        V      tau(   6) = (   0.2500000   0.7632231   0.2533544  )
         7        V      tau(   7) = (   0.2500000   0.9845173   1.3428351  )
         8        V      tau(   8) = (   0.7500000   0.1806429   0.8361263  )
         9        P      tau(   9) = (   0.2500000   0.4046112   2.0548500  )
        10        P      tau(  10) = (   0.7500000   0.7605490   0.1241115  )
        11        P      tau(  11) = (   0.7500000   0.9871913   1.2135922  )
        12        P      tau(  12) = (   0.2500000   0.1779689   0.9653692  )
        13        P      tau(  13) = (   0.7500000   0.4517349   1.5066734  )
        14        P      tau(  14) = (   0.2500000   0.7134253   0.6722880  )
        15        P      tau(  15) = (   0.2500000   1.0343151   1.7617688  )
        16        P      tau(  16) = (   0.7500000   0.1308452   0.4171927  )
        17        O      tau(  17) = (   0.0598850   0.6996717   0.8057451  )
        18        O      tau(  18) = (   0.5598850   0.4654885   1.3732164  )
        19        O      tau(  19) = (   0.9401150   0.1170916   0.2837356  )
        20        O      tau(  20) = (   0.4401150   1.0480686   1.8952258  )
        21        O      tau(  21) = (   0.9401150   0.4654885   1.3732164  )
        22        O      tau(  22) = (   0.4401150   0.6996717   0.8057451  )
        23        O      tau(  23) = (   0.0598850   1.0480686   1.8952258  )
        24        O      tau(  24) = (   0.5598850   0.1170916   0.2837356  )
        25        O      tau(  25) = (   0.2500000   0.3883397   1.0680397  )
        26        O      tau(  26) = (   0.7500000   0.7768205   1.1109217  )
        27        O      tau(  27) = (   0.7500000   0.9709199   0.0214410  )
        28        O      tau(  28) = (   0.2500000   0.1942404   2.1575204  )
        29        O      tau(  29) = (   0.7500000   0.1703173   2.0437155  )
        30        O      tau(  30) = (   0.2500000   0.9948429   0.1352460  )
        31        O      tau(  31) = (   0.2500000   0.7528974   1.2247267  )
        32        O      tau(  32) = (   0.7500000   0.4122628   0.9542348  )
        33        O      tau(  33) = (   0.7500000   0.2552085   1.6413572  )
        34        O      tau(  34) = (   0.2500000   0.9099517   0.5376043  )
        35        O      tau(  35) = (   0.2500000   0.8377887   1.6270850  )
        36        O      tau(  36) = (   0.7500000   0.3273716   0.5518765  )
        37        O      tau(  37) = (   0.4371490   0.1584560   0.8216515  )
        38        O      tau(  38) = (   0.9371490   1.0067043   1.3573099  )
        39        O      tau(  39) = (   0.5628510   0.7410361   0.2678292  )
        40        O      tau(  40) = (   0.0628510   0.4241241   1.9111322  )
        41        O      tau(  41) = (   0.5628510   1.0067043   1.3573099  )
        42        O      tau(  42) = (   0.0628510   0.1584560   0.8216515  )
        43        O      tau(  43) = (   0.4371490   0.4241241   1.9111322  )
        44        O      tau(  44) = (   0.9371490   0.7410361   0.2678292  )
        45        O      tau(  45) = (   0.7500000   1.1316106   0.5911958  )
        46        O      tau(  46) = (   0.2500000   0.0335496   1.5877656  )
        47        O      tau(  47) = (   0.2500000   0.5490305   0.4982849  )
        48        O      tau(  48) = (   0.7500000   0.6161297   1.6806765  )
        49        O      tau(  49) = (   0.7500000   1.1508905   1.0497234  )
        50        O      tau(  50) = (   0.2500000   0.0142697   1.1292380  )
        51        O      tau(  51) = (   0.2500000   0.5683104   0.0397573  )
        52        O      tau(  52) = (   0.7500000   0.5968498   2.1392041  )

   Crystallographic axes

     site n.     atom                  positions (cryst. coord.)
         1        Sr     tau(   1) = (  0.7500000  0.8742140  0.7797590  )
         2        Sr     tau(   2) = (  0.7500000  0.6257860  0.2797590  )
         3        Sr     tau(   3) = (  0.2500000  0.1257860  0.2202410  )
         4        Sr     tau(   4) = (  0.2500000  0.3742140  0.7202410  )
         5        V      tau(   5) = (  0.7500000  0.3449630  0.8837270  )
         6        V      tau(   6) = (  0.2500000  0.6550370  0.1162730  )
         7        V      tau(   7) = (  0.2500000  0.8449630  0.6162730  )
         8        V      tau(   8) = (  0.7500000  0.1550370  0.3837270  )
         9        P      tau(   9) = (  0.2500000  0.3472580  0.9430410  )
        10        P      tau(  10) = (  0.7500000  0.6527420  0.0569590  )
        11        P      tau(  11) = (  0.7500000  0.8472580  0.5569590  )
        12        P      tau(  12) = (  0.2500000  0.1527420  0.4430410  )
        13        P      tau(  13) = (  0.7500000  0.3877020  0.6914640  )
        14        P      tau(  14) = (  0.2500000  0.6122980  0.3085360  )
        15        P      tau(  15) = (  0.2500000  0.8877020  0.8085360  )
        16        P      tau(  16) = (  0.7500000  0.1122980  0.1914640  )
        17        O      tau(  17) = (  0.0598850  0.6004940  0.3697840  )
        18        O      tau(  18) = (  0.5598850  0.3995060  0.6302160  )
        19        O      tau(  19) = (  0.9401150  0.1004940  0.1302160  )
        20        O      tau(  20) = (  0.4401150  0.8995060  0.8697840  )
        21        O      tau(  21) = (  0.9401150  0.3995060  0.6302160  )
        22        O      tau(  22) = (  0.4401150  0.6004940  0.3697840  )
        23        O      tau(  23) = (  0.0598850  0.8995060  0.8697840  )
        24        O      tau(  24) = (  0.5598850  0.1004940  0.1302160  )
        25        O      tau(  25) = (  0.2500000  0.3332930  0.4901600  )
        26        O      tau(  26) = (  0.7500000  0.6667070  0.5098400  )
        27        O      tau(  27) = (  0.7500000  0.8332930  0.0098400  )
        28        O      tau(  28) = (  0.2500000  0.1667070  0.9901600  )
        29        O      tau(  29) = (  0.7500000  0.1461750  0.9379310  )
        30        O      tau(  30) = (  0.2500000  0.8538250  0.0620690  )
        31        O      tau(  31) = (  0.2500000  0.6461750  0.5620690  )
        32        O      tau(  32) = (  0.7500000  0.3538250  0.4379310  )
        33        O      tau(  33) = (  0.7500000  0.2190330  0.7532750  )
        34        O      tau(  34) = (  0.2500000  0.7809670  0.2467250  )
        35        O      tau(  35) = (  0.2500000  0.7190330  0.7467250  )
        36        O      tau(  36) = (  0.7500000  0.2809670  0.2532750  )
        37        O      tau(  37) = (  0.4371490  0.1359950  0.3770840  )
        38        O      tau(  38) = (  0.9371490  0.8640050  0.6229160  )
        39        O      tau(  39) = (  0.5628510  0.6359950  0.1229160  )
        40        O      tau(  40) = (  0.0628510  0.3640050  0.8770840  )
        41        O      tau(  41) = (  0.5628510  0.8640050  0.6229160  )
        42        O      tau(  42) = (  0.0628510  0.1359950  0.3770840  )
        43        O      tau(  43) = (  0.4371490  0.3640050  0.8770840  )
        44        O      tau(  44) = (  0.9371490  0.6359950  0.1229160  )
        45        O      tau(  45) = (  0.7500000  0.9712060  0.2713200  )
        46        O      tau(  46) = (  0.2500000  0.0287940  0.7286800  )
        47        O      tau(  47) = (  0.2500000  0.4712060  0.2286800  )
        48        O      tau(  48) = (  0.7500000  0.5287940  0.7713200  )
        49        O      tau(  49) = (  0.7500000  0.9877530  0.4817540  )
        50        O      tau(  50) = (  0.2500000  0.0122470  0.5182460  )
        51        O      tau(  51) = (  0.2500000  0.4877530  0.0182460  )
        52        O      tau(  52) = (  0.7500000  0.5122470  0.9817540  )

     number of k points=    32  Marzari-Vanderbilt smearing, width (Ry)=  0.0200
                       cart. coord. in units 2pi/alat
        k(    1) = (   0.0000000   0.0000000   0.0000000), wk =   0.0079365
        k(    2) = (   0.0000000   0.0000000   0.1529781), wk =   0.0158730
        k(    3) = (   0.0000000   0.1430418   0.0000000), wk =   0.0158730
        k(    4) = (   0.0000000   0.1430418   0.1529781), wk =   0.0317460
        k(    5) = (   0.0000000   0.2860837   0.0000000), wk =   0.0158730
        k(    6) = (   0.0000000   0.2860837   0.1529781), wk =   0.0317460
        k(    7) = (   0.0000000  -0.4291255   0.0000000), wk =   0.0079365
        k(    8) = (   0.0000000  -0.4291255   0.1529781), wk =   0.0158730
        k(    9) = (   0.1428571   0.0000000   0.0000000), wk =   0.0158730
        k(   10) = (   0.1428571   0.0000000   0.1529781), wk =   0.0317460
        k(   11) = (   0.1428571   0.1430418   0.0000000), wk =   0.0317460
        k(   12) = (   0.1428571   0.1430418   0.1529781), wk =   0.0634921
        k(   13) = (   0.1428571   0.2860837   0.0000000), wk =   0.0317460
        k(   14) = (   0.1428571   0.2860837   0.1529781), wk =   0.0634921
        k(   15) = (   0.1428571  -0.4291255   0.0000000), wk =   0.0158730
        k(   16) = (   0.1428571  -0.4291255   0.1529781), wk =   0.0317460
        k(   17) = (   0.2857143   0.0000000   0.0000000), wk =   0.0158730
        k(   18) = (   0.2857143   0.0000000   0.1529781), wk =   0.0317460
        k(   19) = (   0.2857143   0.1430418   0.0000000), wk =   0.0317460
        k(   20) = (   0.2857143   0.1430418   0.1529781), wk =   0.0634921
        k(   21) = (   0.2857143   0.2860837   0.0000000), wk =   0.0317460
        k(   22) = (   0.2857143   0.2860837   0.1529781), wk =   0.0634921
        k(   23) = (   0.2857143  -0.4291255   0.0000000), wk =   0.0158730
        k(   24) = (   0.2857143  -0.4291255   0.1529781), wk =   0.0317460
        k(   25) = (   0.4285714   0.0000000   0.0000000), wk =   0.0158730
        k(   26) = (   0.4285714   0.0000000   0.1529781), wk =   0.0317460
        k(   27) = (   0.4285714   0.1430418   0.0000000), wk =   0.0317460
        k(   28) = (   0.4285714   0.1430418   0.1529781), wk =   0.0634921
        k(   29) = (   0.4285714   0.2860837   0.0000000), wk =   0.0317460
        k(   30) = (   0.4285714   0.2860837   0.1529781), wk =   0.0634921
        k(   31) = (   0.4285714  -0.4291255   0.0000000), wk =   0.0158730
        k(   32) = (   0.4285714  -0.4291255   0.1529781), wk =   0.0317460

                       cryst. coord.
        k(    1) = (   0.0000000   0.0000000   0.0000000), wk =   0.0079365
        k(    2) = (   0.0000000   0.0000000   0.3333333), wk =   0.0158730
        k(    3) = (   0.0000000   0.1666667   0.0000000), wk =   0.0158730
        k(    4) = (   0.0000000   0.1666667   0.3333333), wk =   0.0317460
        k(    5) = (   0.0000000   0.3333333   0.0000000), wk =   0.0158730
        k(    6) = (   0.0000000   0.3333333   0.3333333), wk =   0.0317460
        k(    7) = (   0.0000000  -0.5000000   0.0000000), wk =   0.0079365
        k(    8) = (   0.0000000  -0.5000000   0.3333333), wk =   0.0158730
        k(    9) = (   0.1428571   0.0000000   0.0000000), wk =   0.0158730
        k(   10) = (   0.1428571   0.0000000   0.3333333), wk =   0.0317460
        k(   11) = (   0.1428571   0.1666667   0.0000000), wk =   0.0317460
        k(   12) = (   0.1428571   0.1666667   0.3333333), wk =   0.0634921
        k(   13) = (   0.1428571   0.3333333   0.0000000), wk =   0.0317460
        k(   14) = (   0.1428571   0.3333333   0.3333333), wk =   0.0634921
        k(   15) = (   0.1428571  -0.5000000   0.0000000), wk =   0.0158730
        k(   16) = (   0.1428571  -0.5000000   0.3333333), wk =   0.0317460
        k(   17) = (   0.2857143   0.0000000   0.0000000), wk =   0.0158730
        k(   18) = (   0.2857143   0.0000000   0.3333333), wk =   0.0317460
        k(   19) = (   0.2857143   0.1666667   0.0000000), wk =   0.0317460
        k(   20) = (   0.2857143   0.1666667   0.3333333), wk =   0.0634921
        k(   21) = (   0.2857143   0.3333333   0.0000000), wk =   0.0317460
        k(   22) = (   0.2857143   0.3333333   0.3333333), wk =   0.0634921
        k(   23) = (   0.2857143  -0.5000000   0.0000000), wk =   0.0158730
        k(   24) = (   0.2857143  -0.5000000   0.3333333), wk =   0.0317460
        k(   25) = (   0.4285714   0.0000000   0.0000000), wk =   0.0158730
        k(   26) = (   0.4285714   0.0000000   0.3333333), wk =   0.0317460
        k(   27) = (   0.4285714   0.1666667   0.0000000), wk =   0.0317460
        k(   28) = (   0.4285714   0.1666667   0.3333333), wk =   0.0634921
        k(   29) = (   0.4285714   0.3333333   0.0000000), wk =   0.0317460
        k(   30) = (   0.4285714   0.3333333   0.3333333), wk =   0.0634921
        k(   31) = (   0.4285714  -0.5000000   0.0000000), wk =   0.0158730
        k(   32) = (   0.4285714  -0.5000000   0.3333333), wk =   0.0317460

     Dense  grid:   664391 G-vectors     FFT dimensions: (  80,  96, 180)

     Smooth grid:   234735 G-vectors     FFT dimensions: (  60,  72, 128)

     Dynamical RAM for                 wfc:      93.64 MB

     Dynamical RAM for     wfc (w. buffer):    6086.88 MB

     Dynamical RAM for             U proj.:       8.96 MB

     Dynamical RAM for  U proj. (w. buff.):     582.48 MB

     Dynamical RAM for           str. fact:      40.55 MB

     Dynamical RAM for           local pot:       0.00 MB

     Dynamical RAM for          nlocal pot:     258.08 MB

     Dynamical RAM for                qrad:      12.84 MB

     Dynamical RAM for          rho,v,vnew:     124.11 MB

     Dynamical RAM for               rhoin:      41.37 MB

     Dynamical RAM for            rho*nmix:     324.41 MB

     Dynamical RAM for           G-vectors:      39.81 MB

     Dynamical RAM for          h,s,v(r/c):       2.00 MB

     Dynamical RAM for          <psi|beta>:       1.84 MB

     Dynamical RAM for      wfcinit/wfcrot:     188.29 MB

     Dynamical RAM for           addusdens:    2260.73 MB

     Dynamical RAM for          addusforce:    2970.66 MB

     Dynamical RAM for         addusstress:    2052.90 MB

     Estimated static dynamical RAM per process >       7.13 GB

     Estimated max dynamical RAM per process >      10.35 GB

     Atomic positions and unit cell read from directory:
     ./out/aiida.save/
     Atomic positions from file used, from input discarded
 
     New effective cutoffs (rho, wfc):  471.73   58.93

     Check: negative core charge=   -0.000003
     Generating pointlists ...
     new r_m :   0.0939 (alat units)  1.1704 (a.u.) for type    1
     new r_m :   0.0939 (alat units)  1.1704 (a.u.) for type    2
     new r_m :   0.1487 (alat units)  1.8533 (a.u.) for type    3
     new r_m :   0.0977 (alat units)  1.2173 (a.u.) for type    4

     The initial density is read from file :
     ./out/aiida.save/charge-density


     negative rho (up, down):  1.341E-01 1.337E-01

     HUBBARD ENERGY =    1.2147  (Ry)

     STARTING HUBBARD OCCUPATIONS:

     =================== HUBBARD OCCUPATIONS ===================
     ------------------------ ATOM    5 ------------------------
     Tr[ns(  5)] (up, down, total) =   1.56798  1.62427  3.19226
     Atomic magnetic moment for atom   5 =  -0.05629
     SPIN  1
     eigenvalues:
       0.182  0.304  0.330  0.343  0.408
     eigenvectors (columns):
       0.000  0.525 -0.000 -0.780  0.339
       0.922 -0.000  0.387 -0.000 -0.000
       0.000 -0.520 -0.000 -0.610 -0.598
      -0.000 -0.674 -0.000 -0.138  0.726
      -0.387 -0.000  0.922 -0.000 -0.000
     occupation matrix ns (before diag.):
       0.340 -0.000 -0.002  0.030  0.000
      -0.000  0.204 -0.000  0.000  0.053
      -0.002 -0.000  0.356 -0.042  0.000
       0.030  0.000 -0.042  0.360 -0.000
       0.000  0.053  0.000 -0.000  0.308
     SPIN  2
     eigenvalues:
       0.195  0.312  0.345  0.358  0.415
     eigenvectors (columns):
      -0.000  0.569 -0.000 -0.739  0.360
      -0.926 -0.000  0.377 -0.000 -0.000
      -0.000 -0.484 -0.000 -0.655 -0.580
       0.000 -0.664 -0.000 -0.156  0.731
       0.377 -0.000  0.926 -0.000 -0.000
     occupation matrix ns (before diag.):
       0.350 -0.000  0.001  0.032  0.000
      -0.000  0.216 -0.000  0.000  0.053
       0.001 -0.000  0.366 -0.039  0.000
       0.032  0.000 -0.039  0.368 -0.000
       0.000  0.053  0.000 -0.000  0.324
     ------------------------ ATOM    6 ------------------------
     Tr[ns(  6)] (up, down, total) =   1.56798  1.62427  3.19226
     Atomic magnetic moment for atom   6 =  -0.05629
     SPIN  1
     eigenvalues:
       0.182  0.304  0.330  0.343  0.408
     eigenvectors (columns):
       0.000  0.525 -0.000 -0.780  0.339
       0.922 -0.000  0.387 -0.000 -0.000
       0.000 -0.520 -0.000 -0.610 -0.598
      -0.000 -0.674 -0.000 -0.138  0.726
      -0.387 -0.000  0.922 -0.000 -0.000
     occupation matrix ns (before diag.):
       0.340 -0.000 -0.002  0.030  0.000
      -0.000  0.204 -0.000  0.000  0.053
      -0.002 -0.000  0.356 -0.042  0.000
       0.030  0.000 -0.042  0.360 -0.000
       0.000  0.053  0.000 -0.000  0.308
     SPIN  2
     eigenvalues:
       0.195  0.312  0.345  0.358  0.415
     eigenvectors (columns):
      -0.000  0.569 -0.000 -0.739  0.360
      -0.926 -0.000  0.377 -0.000 -0.000
      -0.000 -0.484 -0.000 -0.655 -0.580
       0.000 -0.664 -0.000 -0.156  0.731
       0.377 -0.000  0.926 -0.000 -0.000
     occupation matrix ns (before diag.):
       0.350 -0.000  0.001  0.032  0.000
      -0.000  0.216 -0.000  0.000  0.053
       0.001 -0.000  0.366 -0.039  0.000
       0.032  0.000 -0.039  0.368 -0.000
       0.000  0.053  0.000 -0.000  0.324
     ------------------------ ATOM    7 ------------------------
     Tr[ns(  7)] (up, down, total) =   1.56798  1.62427  3.19226
     Atomic magnetic moment for atom   7 =  -0.05629
     SPIN  1
     eigenvalues:
       0.182  0.304  0.330  0.343  0.408
     eigenvectors (columns):
      -0.000 -0.525  0.000  0.780 -0.339
      -0.922 -0.000 -0.387  0.000 -0.000
       0.000 -0.520  0.000 -0.610 -0.598
       0.000  0.674 -0.000  0.138 -0.726
      -0.387  0.000  0.922 -0.000 -0.000
     occupation matrix ns (before diag.):
       0.340 -0.000  0.002  0.030  0.000
      -0.000  0.204 -0.000  0.000 -0.053
       0.002 -0.000  0.356  0.042  0.000
       0.030  0.000  0.042  0.360 -0.000
       0.000 -0.053  0.000 -0.000  0.308
     SPIN  2
     eigenvalues:
       0.195  0.312  0.345  0.358  0.415
     eigenvectors (columns):
      -0.000 -0.569  0.000  0.739 -0.360
      -0.926 -0.000 -0.377  0.000 -0.000
       0.000 -0.484  0.000 -0.655 -0.580
       0.000  0.664 -0.000  0.156 -0.731
      -0.377  0.000  0.926 -0.000 -0.000
     occupation matrix ns (before diag.):
       0.350 -0.000 -0.001  0.032  0.000
      -0.000  0.216 -0.000  0.000 -0.053
      -0.001 -0.000  0.366  0.039  0.000
       0.032  0.000  0.039  0.368 -0.000
       0.000 -0.053  0.000 -0.000  0.324
     ------------------------ ATOM    8 ------------------------
     Tr[ns(  8)] (up, down, total) =   1.56798  1.62427  3.19226
     Atomic magnetic moment for atom   8 =  -0.05629
     SPIN  1
     eigenvalues:
       0.182  0.304  0.330  0.343  0.408
     eigenvectors (columns):
      -0.000 -0.525  0.000  0.780 -0.339
      -0.922 -0.000 -0.387  0.000 -0.000
       0.000 -0.520  0.000 -0.610 -0.598
       0.000  0.674 -0.000  0.138 -0.726
      -0.387  0.000  0.922 -0.000 -0.000
     occupation matrix ns (before diag.):
       0.340 -0.000  0.002  0.030  0.000
      -0.000  0.204 -0.000  0.000 -0.053
       0.002 -0.000  0.356  0.042  0.000
       0.030  0.000  0.042  0.360 -0.000
       0.000 -0.053  0.000 -0.000  0.308
     SPIN  2
     eigenvalues:
       0.195  0.312  0.345  0.358  0.415
     eigenvectors (columns):
      -0.000 -0.569  0.000  0.739 -0.360
      -0.926 -0.000 -0.377  0.000 -0.000
       0.000 -0.484  0.000 -0.655 -0.580
       0.000  0.664 -0.000  0.156 -0.731
      -0.377  0.000  0.926 -0.000 -0.000
     occupation matrix ns (before diag.):
       0.350 -0.000 -0.001  0.032  0.000
      -0.000  0.216 -0.000  0.000 -0.053
      -0.001 -0.000  0.366  0.039  0.000
       0.032  0.000  0.039  0.368 -0.000
       0.000 -0.053  0.000 -0.000  0.324

     Number of occupied Hubbard levels =   12.7690

     Atomic wfc used for Hubbard projectors are orthogonalized

     Starting wfcs from file
     Checking if some PAW data can be deallocated... 
     Calculation restarted from scf iteration #     3

     total cpu time spent up to now is        9.0 secs

     Self-consistent Calculation
[tb_dev] Currently allocated     4.66E+00 Mbytes, locked:    0 /   3
[tb_pin] Currently allocated     0.00E+00 Mbytes, locked:    0 /   0

     iteration #  3     ecut=    50.00 Ry     beta= 0.40
     Calculation restarted from kpoint #    37
     CG style diagonalization

---- Real-time Memory Report at c_bands before calling an iterative solver
          5185 MiB given to the printing process from OS
             0 MiB allocation reported by mallinfo(arena+hblkhd)
        394826 MiB available memory on the node where the printing process lives
     GPU memory used/free/total (MiB): 5054 / 59890 / 64944
------------------
     c_bands:  4 eigenvalues not converged
     c_bands:  3 eigenvalues not converged
     c_bands:  4 eigenvalues not converged
     c_bands:  3 eigenvalues not converged
     c_bands:  2 eigenvalues not converged
     c_bands:  3 eigenvalues not converged
     c_bands:  4 eigenvalues not converged
     c_bands:  2 eigenvalues not converged
     c_bands:  3 eigenvalues not converged
     c_bands:  5 eigenvalues not converged
     c_bands:  3 eigenvalues not converged
     c_bands:  5 eigenvalues not converged
     c_bands:  3 eigenvalues not converged
     c_bands:  2 eigenvalues not converged
     c_bands:  3 eigenvalues not converged
     c_bands:  3 eigenvalues not converged
     c_bands:  2 eigenvalues not converged
     c_bands:  3 eigenvalues not converged
     c_bands:  4 eigenvalues not converged
     c_bands:  3 eigenvalues not converged
     c_bands:  1 eigenvalues not converged
     c_bands:  2 eigenvalues not converged
     c_bands:  3 eigenvalues not converged
     c_bands:  3 eigenvalues not converged
     c_bands:  4 eigenvalues not converged
     c_bands:  3 eigenvalues not converged
     c_bands:  3 eigenvalues not converged
     c_bands:  3 eigenvalues not converged
     ethr =  1.42E-09,  avg # of iterations =  5.1

     =================== HUBBARD OCCUPATIONS ===================
     ------------------------ ATOM    5 ------------------------
     Tr[ns(  5)] (up, down, total) =   1.56799  1.62428  3.19227
     Atomic magnetic moment for atom   5 =  -0.05628
     SPIN  1
     eigenvalues:
       0.182  0.304  0.330  0.343  0.408
     eigenvectors (columns):
       0.000  0.526 -0.000 -0.780  0.340
       0.922 -0.000  0.386 -0.000 -0.000
       0.000 -0.520 -0.000 -0.610 -0.598
      -0.000 -0.674 -0.000 -0.138  0.726
      -0.386 -0.000  0.922 -0.000 -0.000
     occupation matrix ns (before diag.):
       0.340 -0.000 -0.002  0.030  0.000
      -0.000  0.204 -0.000  0.000  0.053
      -0.002 -0.000  0.356 -0.042  0.000
       0.030  0.000 -0.042  0.360 -0.000
       0.000  0.053  0.000 -0.000  0.308
     SPIN  2
     eigenvalues:
       0.195  0.312  0.345  0.357  0.415
     eigenvectors (columns):
      -0.000  0.569 -0.000 -0.739  0.360
      -0.926 -0.000  0.377 -0.000 -0.000
      -0.000 -0.484 -0.000 -0.656 -0.580
       0.000 -0.664 -0.000 -0.156  0.731
       0.377 -0.000  0.926 -0.000 -0.000
     occupation matrix ns (before diag.):
       0.350 -0.000  0.001  0.032  0.000
      -0.000  0.216 -0.000  0.000  0.053
       0.001 -0.000  0.366 -0.039  0.000
       0.032  0.000 -0.039  0.368 -0.000
       0.000  0.053  0.000 -0.000  0.324
     ------------------------ ATOM    6 ------------------------
     Tr[ns(  6)] (up, down, total) =   1.56799  1.62428  3.19227
     Atomic magnetic moment for atom   6 =  -0.05628
     SPIN  1
     eigenvalues:
       0.182  0.304  0.330  0.343  0.408
     eigenvectors (columns):
       0.000  0.526 -0.000 -0.780  0.340
       0.922 -0.000  0.386 -0.000 -0.000
       0.000 -0.520 -0.000 -0.610 -0.598
      -0.000 -0.674 -0.000 -0.138  0.726
      -0.386 -0.000  0.922 -0.000 -0.000
     occupation matrix ns (before diag.):
       0.340 -0.000 -0.002  0.030  0.000
      -0.000  0.204 -0.000  0.000  0.053
      -0.002 -0.000  0.356 -0.042  0.000
       0.030  0.000 -0.042  0.360 -0.000
       0.000  0.053  0.000 -0.000  0.308
     SPIN  2
     eigenvalues:
       0.195  0.312  0.345  0.357  0.415
     eigenvectors (columns):
      -0.000  0.569 -0.000 -0.739  0.360
      -0.926 -0.000  0.377 -0.000 -0.000
      -0.000 -0.484 -0.000 -0.656 -0.580
       0.000 -0.664 -0.000 -0.156  0.731
       0.377 -0.000  0.926 -0.000 -0.000
     occupation matrix ns (before diag.):
       0.350 -0.000  0.001  0.032  0.000
      -0.000  0.216 -0.000  0.000  0.053
       0.001 -0.000  0.366 -0.039  0.000
       0.032  0.000 -0.039  0.368 -0.000
       0.000  0.053  0.000 -0.000  0.324
     ------------------------ ATOM    7 ------------------------
     Tr[ns(  7)] (up, down, total) =   1.56799  1.62428  3.19227
     Atomic magnetic moment for atom   7 =  -0.05628
     SPIN  1
     eigenvalues:
       0.182  0.304  0.330  0.343  0.408
     eigenvectors (columns):
      -0.000 -0.526  0.000  0.780 -0.340
      -0.922 -0.000 -0.386  0.000 -0.000
       0.000 -0.520  0.000 -0.610 -0.598
       0.000  0.674 -0.000  0.138 -0.726
      -0.386  0.000  0.922 -0.000 -0.000
     occupation matrix ns (before diag.):
       0.340 -0.000  0.002  0.030  0.000
      -0.000  0.204 -0.000  0.000 -0.053
       0.002 -0.000  0.356  0.042  0.000
       0.030  0.000  0.042  0.360 -0.000
       0.000 -0.053  0.000 -0.000  0.308
     SPIN  2
     eigenvalues:
       0.195  0.312  0.345  0.357  0.415
     eigenvectors (columns):
      -0.000 -0.569  0.000  0.739 -0.360
      -0.926 -0.000 -0.377  0.000 -0.000
      -0.000 -0.484  0.000 -0.656 -0.580
       0.000  0.664 -0.000  0.156 -0.731
      -0.377  0.000  0.926 -0.000 -0.000
     occupation matrix ns (before diag.):
       0.350 -0.000 -0.001  0.032  0.000
      -0.000  0.216 -0.000  0.000 -0.053
      -0.001 -0.000  0.366  0.039  0.000
       0.032  0.000  0.039  0.368 -0.000
       0.000 -0.053  0.000 -0.000  0.324
     ------------------------ ATOM    8 ------------------------
     Tr[ns(  8)] (up, down, total) =   1.56799  1.62428  3.19227
     Atomic magnetic moment for atom   8 =  -0.05628
     SPIN  1
     eigenvalues:
       0.182  0.304  0.330  0.343  0.408
     eigenvectors (columns):
      -0.000 -0.526  0.000  0.780 -0.340
      -0.922 -0.000 -0.386  0.000 -0.000
       0.000 -0.520  0.000 -0.610 -0.598
       0.000  0.674 -0.000  0.138 -0.726
      -0.386  0.000  0.922 -0.000 -0.000
     occupation matrix ns (before diag.):
       0.340 -0.000  0.002  0.030  0.000
      -0.000  0.204 -0.000  0.000 -0.053
       0.002 -0.000  0.356  0.042  0.000
       0.030  0.000  0.042  0.360 -0.000
       0.000 -0.053  0.000 -0.000  0.308
     SPIN  2
     eigenvalues:
       0.195  0.312  0.345  0.357  0.415
     eigenvectors (columns):
      -0.000 -0.569  0.000  0.739 -0.360
      -0.926 -0.000 -0.377  0.000 -0.000
       0.000 -0.484  0.000 -0.656 -0.580
       0.000  0.664 -0.000  0.156 -0.731
      -0.377  0.000  0.926 -0.000 -0.000
     occupation matrix ns (before diag.):
       0.350 -0.000 -0.001  0.032  0.000
      -0.000  0.216 -0.000  0.000 -0.053
      -0.001 -0.000  0.366  0.039  0.000
       0.032  0.000  0.039  0.368 -0.000
       0.000 -0.053  0.000 -0.000  0.324

     Number of occupied Hubbard levels =   12.7691

     negative rho (up, down):  1.341E-01 1.337E-01

     HUBBARD ENERGY =    1.2147  (Ry)

     total cpu time spent up to now is      197.7 secs

     total energy              =   -2456.61961192 Ry
     estimated scf accuracy    <       0.00000548 Ry

     total magnetization       =     5.44 Bohr mag/cell
     absolute magnetization    =     6.34 Bohr mag/cell
[tb_dev] Currently allocated     0.00E+00 Mbytes, locked:    0 /   0
[tb_pin] Currently allocated     0.00E+00 Mbytes, locked:    0 /   0

     iteration #  4     ecut=    50.00 Ry     beta= 0.40
     CG style diagonalization

---- Real-time Memory Report at c_bands before calling an iterative solver
          7869 MiB given to the printing process from OS
             0 MiB allocation reported by mallinfo(arena+hblkhd)
        389414 MiB available memory on the node where the printing process lives
     GPU memory used/free/total (MiB): 5308 / 59636 / 64944
------------------
     ethr =  1.42E-09,  avg # of iterations =  3.0

     =================== HUBBARD OCCUPATIONS ===================
     ------------------------ ATOM    5 ------------------------
     Tr[ns(  5)] (up, down, total) =   1.56822  1.62451  3.19273
     Atomic magnetic moment for atom   5 =  -0.05629
     SPIN  1
     eigenvalues:
       0.182  0.304  0.330  0.343  0.408
     eigenvectors (columns):
       0.000  0.526 -0.000 -0.780  0.340
       0.922 -0.000  0.387 -0.000 -0.000
       0.000 -0.519 -0.000 -0.610 -0.598
      -0.000 -0.674 -0.000 -0.138  0.726
      -0.387 -0.000  0.922 -0.000 -0.000
     occupation matrix ns (before diag.):
       0.340 -0.000 -0.002  0.030  0.000
      -0.000  0.204 -0.000  0.000  0.053
      -0.002 -0.000  0.356 -0.042  0.000
       0.030  0.000 -0.042  0.360 -0.000
       0.000  0.053  0.000 -0.000  0.308
     SPIN  2
     eigenvalues:
       0.195  0.312  0.345  0.358  0.415
     eigenvectors (columns):
      -0.000  0.569 -0.000 -0.739  0.360
      -0.926 -0.000  0.377 -0.000 -0.000
      -0.000 -0.484 -0.000 -0.656 -0.579
       0.000 -0.664 -0.000 -0.156  0.731
       0.377 -0.000  0.926 -0.000 -0.000
     occupation matrix ns (before diag.):
       0.350 -0.000  0.001  0.032  0.000
      -0.000  0.216 -0.000  0.000  0.053
       0.001 -0.000  0.366 -0.039  0.000
       0.032  0.000 -0.039  0.368 -0.000
       0.000  0.053  0.000 -0.000  0.324
     ------------------------ ATOM    6 ------------------------
     Tr[ns(  6)] (up, down, total) =   1.56822  1.62451  3.19273
     Atomic magnetic moment for atom   6 =  -0.05629
     SPIN  1
     eigenvalues:
       0.182  0.304  0.330  0.343  0.408
     eigenvectors (columns):
       0.000  0.526 -0.000 -0.780  0.340
       0.922 -0.000  0.387 -0.000 -0.000
       0.000 -0.519 -0.000 -0.610 -0.598
      -0.000 -0.674 -0.000 -0.138  0.726
      -0.387 -0.000  0.922 -0.000 -0.000
     occupation matrix ns (before diag.):
       0.340 -0.000 -0.002  0.030  0.000
      -0.000  0.204 -0.000  0.000  0.053
      -0.002 -0.000  0.356 -0.042  0.000
       0.030  0.000 -0.042  0.360 -0.000
       0.000  0.053  0.000 -0.000  0.308
     SPIN  2
     eigenvalues:
       0.195  0.312  0.345  0.358  0.415
     eigenvectors (columns):
      -0.000  0.569 -0.000 -0.739  0.360
      -0.926 -0.000  0.377 -0.000 -0.000
      -0.000 -0.484 -0.000 -0.656 -0.579
       0.000 -0.664 -0.000 -0.156  0.731
       0.377 -0.000  0.926 -0.000 -0.000
     occupation matrix ns (before diag.):
       0.350 -0.000  0.001  0.032  0.000
      -0.000  0.216 -0.000  0.000  0.053
       0.001 -0.000  0.366 -0.039  0.000
       0.032  0.000 -0.039  0.368 -0.000
       0.000  0.053  0.000 -0.000  0.324
     ------------------------ ATOM    7 ------------------------
     Tr[ns(  7)] (up, down, total) =   1.56822  1.62451  3.19273
     Atomic magnetic moment for atom   7 =  -0.05629
     SPIN  1
     eigenvalues:
       0.182  0.304  0.330  0.343  0.408
     eigenvectors (columns):
      -0.000 -0.526  0.000  0.780 -0.340
      -0.922 -0.000 -0.387  0.000 -0.000
       0.000 -0.519  0.000 -0.610 -0.598
       0.000  0.674 -0.000  0.138 -0.726
      -0.387  0.000  0.922 -0.000 -0.000
     occupation matrix ns (before diag.):
       0.340 -0.000  0.002  0.030  0.000
      -0.000  0.204 -0.000  0.000 -0.053
       0.002 -0.000  0.356  0.042  0.000
       0.030  0.000  0.042  0.360 -0.000
       0.000 -0.053  0.000 -0.000  0.308
     SPIN  2
     eigenvalues:
       0.195  0.312  0.345  0.358  0.415
     eigenvectors (columns):
      -0.000 -0.569  0.000  0.739 -0.360
      -0.926 -0.000 -0.377  0.000 -0.000
       0.000 -0.484  0.000 -0.656 -0.579
       0.000  0.664 -0.000  0.156 -0.731
      -0.377  0.000  0.926 -0.000 -0.000
     occupation matrix ns (before diag.):
       0.350 -0.000 -0.001  0.032  0.000
      -0.000  0.216 -0.000  0.000 -0.053
      -0.001 -0.000  0.366  0.039  0.000
       0.032  0.000  0.039  0.368 -0.000
       0.000 -0.053  0.000 -0.000  0.324
     ------------------------ ATOM    8 ------------------------
     Tr[ns(  8)] (up, down, total) =   1.56822  1.62451  3.19273
     Atomic magnetic moment for atom   8 =  -0.05629
     SPIN  1
     eigenvalues:
       0.182  0.304  0.330  0.343  0.408
     eigenvectors (columns):
      -0.000 -0.526  0.000  0.780 -0.340
      -0.922 -0.000 -0.387  0.000 -0.000
       0.000 -0.519  0.000 -0.610 -0.598
       0.000  0.674 -0.000  0.138 -0.726
      -0.387  0.000  0.922 -0.000 -0.000
     occupation matrix ns (before diag.):
       0.340 -0.000  0.002  0.030  0.000
      -0.000  0.204 -0.000  0.000 -0.053
       0.002 -0.000  0.356  0.042  0.000
       0.030  0.000  0.042  0.360 -0.000
       0.000 -0.053  0.000 -0.000  0.308
     SPIN  2
     eigenvalues:
       0.195  0.312  0.345  0.358  0.415
     eigenvectors (columns):
      -0.000 -0.569  0.000  0.739 -0.360
      -0.926 -0.000 -0.377  0.000 -0.000
      -0.000 -0.484  0.000 -0.656 -0.579
       0.000  0.664 -0.000  0.156 -0.731
      -0.377  0.000  0.926 -0.000 -0.000
     occupation matrix ns (before diag.):
       0.350 -0.000 -0.001  0.032  0.000
      -0.000  0.216 -0.000  0.000 -0.053
      -0.001 -0.000  0.366  0.039  0.000
       0.032  0.000  0.039  0.368 -0.000
       0.000 -0.053  0.000 -0.000  0.324

     Number of occupied Hubbard levels =   12.7709

     negative rho (up, down):  1.341E-01 1.337E-01

     HUBBARD ENERGY =    1.2147  (Ry)

     total cpu time spent up to now is      344.8 secs

     total energy              =   -2456.61961225 Ry
     estimated scf accuracy    <       0.00000115 Ry

     total magnetization       =     5.44 Bohr mag/cell
     absolute magnetization    =     6.34 Bohr mag/cell
[tb_dev] Currently allocated     0.00E+00 Mbytes, locked:    0 /   0
[tb_pin] Currently allocated     0.00E+00 Mbytes, locked:    0 /   0

     iteration #  5     ecut=    50.00 Ry     beta= 0.40
     CG style diagonalization

---- Real-time Memory Report at c_bands before calling an iterative solver
          7906 MiB given to the printing process from OS
             0 MiB allocation reported by mallinfo(arena+hblkhd)
        389362 MiB available memory on the node where the printing process lives
     GPU memory used/free/total (MiB): 5308 / 59636 / 64944
------------------
     ethr =  3.32E-10,  avg # of iterations =  3.0

     =================== HUBBARD OCCUPATIONS ===================
     ------------------------ ATOM    5 ------------------------
     Tr[ns(  5)] (up, down, total) =   1.56785  1.62412  3.19197
     Atomic magnetic moment for atom   5 =  -0.05627
     SPIN  1
     eigenvalues:
       0.182  0.304  0.330  0.343  0.408
     eigenvectors (columns):
       0.000  0.525 -0.000 -0.780  0.340
       0.922 -0.000  0.386 -0.000 -0.000
       0.000 -0.520 -0.000 -0.610 -0.598
      -0.000 -0.674 -0.000 -0.138  0.726
      -0.386 -0.000  0.922 -0.000 -0.000
     occupation matrix ns (before diag.):
       0.340 -0.000 -0.003  0.030  0.000
      -0.000  0.204 -0.000  0.000  0.053
      -0.003 -0.000  0.356 -0.042  0.000
       0.030  0.000 -0.042  0.360 -0.000
       0.000  0.053  0.000 -0.000  0.308
     SPIN  2
     eigenvalues:
       0.195  0.312  0.345  0.357  0.415
     eigenvectors (columns):
      -0.000  0.569 -0.000 -0.739  0.360
      -0.926 -0.000  0.377 -0.000 -0.000
      -0.000 -0.484 -0.000 -0.655 -0.580
       0.000 -0.664 -0.000 -0.155  0.731
       0.377 -0.000  0.926 -0.000 -0.000
     occupation matrix ns (before diag.):
       0.350 -0.000  0.001  0.032  0.000
      -0.000  0.216 -0.000  0.000  0.053
       0.001 -0.000  0.366 -0.039  0.000
       0.032  0.000 -0.039  0.368 -0.000
       0.000  0.053  0.000 -0.000  0.324
     ------------------------ ATOM    6 ------------------------
     Tr[ns(  6)] (up, down, total) =   1.56785  1.62412  3.19197
     Atomic magnetic moment for atom   6 =  -0.05627
     SPIN  1
     eigenvalues:
       0.182  0.304  0.330  0.343  0.408
     eigenvectors (columns):
       0.000  0.525 -0.000 -0.780  0.340
       0.922 -0.000  0.386 -0.000 -0.000
       0.000 -0.520 -0.000 -0.610 -0.598
      -0.000 -0.674 -0.000 -0.138  0.726
      -0.386 -0.000  0.922 -0.000 -0.000
     occupation matrix ns (before diag.):
       0.340 -0.000 -0.003  0.030  0.000
      -0.000  0.204 -0.000  0.000  0.053
      -0.003 -0.000  0.356 -0.042  0.000
       0.030  0.000 -0.042  0.360 -0.000
       0.000  0.053  0.000 -0.000  0.308
     SPIN  2
     eigenvalues:
       0.195  0.312  0.345  0.357  0.415
     eigenvectors (columns):
      -0.000  0.569 -0.000 -0.739  0.360
      -0.926 -0.000  0.377 -0.000 -0.000
      -0.000 -0.484 -0.000 -0.655 -0.580
       0.000 -0.664 -0.000 -0.155  0.731
       0.377 -0.000  0.926 -0.000 -0.000
     occupation matrix ns (before diag.):
       0.350 -0.000  0.001  0.032  0.000
      -0.000  0.216 -0.000  0.000  0.053
       0.001 -0.000  0.366 -0.039  0.000
       0.032  0.000 -0.039  0.368 -0.000
       0.000  0.053  0.000 -0.000  0.324
     ------------------------ ATOM    7 ------------------------
     Tr[ns(  7)] (up, down, total) =   1.56785  1.62412  3.19197
     Atomic magnetic moment for atom   7 =  -0.05627
     SPIN  1
     eigenvalues:
       0.182  0.304  0.330  0.343  0.408
     eigenvectors (columns):
      -0.000 -0.525  0.000  0.780 -0.340
      -0.922 -0.000 -0.386  0.000 -0.000
       0.000 -0.520  0.000 -0.610 -0.598
       0.000  0.674 -0.000  0.138 -0.726
      -0.386  0.000  0.922 -0.000 -0.000
     occupation matrix ns (before diag.):
       0.340 -0.000  0.003  0.030  0.000
      -0.000  0.204 -0.000  0.000 -0.053
       0.003 -0.000  0.356  0.042  0.000
       0.030  0.000  0.042  0.360 -0.000
       0.000 -0.053  0.000 -0.000  0.308
     SPIN  2
     eigenvalues:
       0.195  0.312  0.345  0.357  0.415
     eigenvectors (columns):
      -0.000 -0.569  0.000  0.739 -0.360
      -0.926 -0.000 -0.377  0.000 -0.000
      -0.000 -0.484  0.000 -0.655 -0.580
       0.000  0.664 -0.000  0.155 -0.731
      -0.377  0.000  0.926 -0.000 -0.000
     occupation matrix ns (before diag.):
       0.350 -0.000 -0.001  0.032  0.000
      -0.000  0.216 -0.000  0.000 -0.053
      -0.001 -0.000  0.366  0.039  0.000
       0.032  0.000  0.039  0.368 -0.000
       0.000 -0.053  0.000 -0.000  0.324
     ------------------------ ATOM    8 ------------------------
     Tr[ns(  8)] (up, down, total) =   1.56785  1.62412  3.19197
     Atomic magnetic moment for atom   8 =  -0.05627
     SPIN  1
     eigenvalues:
       0.182  0.304  0.330  0.343  0.408
     eigenvectors (columns):
      -0.000 -0.525  0.000  0.780 -0.340
      -0.922 -0.000 -0.386  0.000 -0.000
       0.000 -0.520  0.000 -0.610 -0.598
       0.000  0.674 -0.000  0.138 -0.726
      -0.386  0.000  0.922 -0.000 -0.000
     occupation matrix ns (before diag.):
       0.340 -0.000  0.003  0.030  0.000
      -0.000  0.204 -0.000  0.000 -0.053
       0.003 -0.000  0.356  0.042  0.000
       0.030  0.000  0.042  0.360 -0.000
       0.000 -0.053  0.000 -0.000  0.308
     SPIN  2
     eigenvalues:
       0.195  0.312  0.345  0.357  0.415
     eigenvectors (columns):
      -0.000 -0.569  0.000  0.739 -0.360
      -0.926 -0.000 -0.377  0.000 -0.000
       0.000 -0.484  0.000 -0.655 -0.580
       0.000  0.664 -0.000  0.155 -0.731
      -0.377  0.000  0.926 -0.000 -0.000
     occupation matrix ns (before diag.):
       0.350 -0.000 -0.001  0.032  0.000
      -0.000  0.216 -0.000  0.000 -0.053
      -0.001 -0.000  0.366  0.039  0.000
       0.032  0.000  0.039  0.368 -0.000
       0.000 -0.053  0.000 -0.000  0.324

     Number of occupied Hubbard levels =   12.7679

     negative rho (up, down):  1.341E-01 1.337E-01

     HUBBARD ENERGY =    1.2147  (Ry)

     total cpu time spent up to now is      491.9 secs

     total energy              =   -2456.61961244 Ry
     estimated scf accuracy    <       0.00000041 Ry

     total magnetization       =     5.44 Bohr mag/cell
     absolute magnetization    =     6.34 Bohr mag/cell
[tb_dev] Currently allocated     0.00E+00 Mbytes, locked:    0 /   0
[tb_pin] Currently allocated     0.00E+00 Mbytes, locked:    0 /   0

     iteration #  6     ecut=    50.00 Ry     beta= 0.40
     CG style diagonalization

---- Real-time Memory Report at c_bands before calling an iterative solver
          7932 MiB given to the printing process from OS
             0 MiB allocation reported by mallinfo(arena+hblkhd)
        389279 MiB available memory on the node where the printing process lives
     GPU memory used/free/total (MiB): 5308 / 59636 / 64944
------------------
     ethr =  1.19E-10,  avg # of iterations =  3.0

     =================== HUBBARD OCCUPATIONS ===================
     ------------------------ ATOM    5 ------------------------
     Tr[ns(  5)] (up, down, total) =   1.56800  1.62427  3.19227
     Atomic magnetic moment for atom   5 =  -0.05627
     SPIN  1
     eigenvalues:
       0.182  0.304  0.330  0.343  0.408
     eigenvectors (columns):
       0.000  0.525 -0.000 -0.780  0.340
       0.922 -0.000  0.386 -0.000 -0.000
       0.000 -0.520 -0.000 -0.610 -0.598
      -0.000 -0.674 -0.000 -0.138  0.726
      -0.386 -0.000  0.922 -0.000 -0.000
     occupation matrix ns (before diag.):
       0.340 -0.000 -0.002  0.030  0.000
      -0.000  0.204 -0.000  0.000  0.053
      -0.002 -0.000  0.356 -0.042  0.000
       0.030  0.000 -0.042  0.360 -0.000
       0.000  0.053  0.000 -0.000  0.308
     SPIN  2
     eigenvalues:
       0.195  0.312  0.345  0.357  0.415
     eigenvectors (columns):
      -0.000  0.569 -0.000 -0.739  0.360
      -0.926 -0.000  0.377 -0.000 -0.000
      -0.000 -0.484 -0.000 -0.656 -0.580
       0.000 -0.664 -0.000 -0.156  0.731
       0.377 -0.000  0.926 -0.000 -0.000
     occupation matrix ns (before diag.):
       0.350 -0.000  0.001  0.032  0.000
      -0.000  0.216 -0.000  0.000  0.053
       0.001 -0.000  0.366 -0.039  0.000
       0.032  0.000 -0.039  0.368 -0.000
       0.000  0.053  0.000 -0.000  0.324
     ------------------------ ATOM    6 ------------------------
     Tr[ns(  6)] (up, down, total) =   1.56800  1.62427  3.19227
     Atomic magnetic moment for atom   6 =  -0.05627
     SPIN  1
     eigenvalues:
       0.182  0.304  0.330  0.343  0.408
     eigenvectors (columns):
       0.000  0.525 -0.000 -0.780  0.340
       0.922 -0.000  0.386 -0.000 -0.000
       0.000 -0.520 -0.000 -0.610 -0.598
      -0.000 -0.674 -0.000 -0.138  0.726
      -0.386 -0.000  0.922 -0.000 -0.000
     occupation matrix ns (before diag.):
       0.340 -0.000 -0.002  0.030  0.000
      -0.000  0.204 -0.000  0.000  0.053
      -0.002 -0.000  0.356 -0.042  0.000
       0.030  0.000 -0.042  0.360 -0.000
       0.000  0.053  0.000 -0.000  0.308
     SPIN  2
     eigenvalues:
       0.195  0.312  0.345  0.357  0.415
     eigenvectors (columns):
      -0.000  0.569 -0.000 -0.739  0.360
      -0.926 -0.000  0.377 -0.000 -0.000
      -0.000 -0.484 -0.000 -0.656 -0.580
       0.000 -0.664 -0.000 -0.156  0.731
       0.377 -0.000  0.926 -0.000 -0.000
     occupation matrix ns (before diag.):
       0.350 -0.000  0.001  0.032  0.000
      -0.000  0.216 -0.000  0.000  0.053
       0.001 -0.000  0.366 -0.039  0.000
       0.032  0.000 -0.039  0.368 -0.000
       0.000  0.053  0.000 -0.000  0.324
     ------------------------ ATOM    7 ------------------------
     Tr[ns(  7)] (up, down, total) =   1.56800  1.62427  3.19227
     Atomic magnetic moment for atom   7 =  -0.05627
     SPIN  1
     eigenvalues:
       0.182  0.304  0.330  0.343  0.408
     eigenvectors (columns):
      -0.000 -0.525  0.000  0.780 -0.340
      -0.922 -0.000 -0.386  0.000 -0.000
       0.000 -0.520  0.000 -0.610 -0.598
       0.000  0.674 -0.000  0.138 -0.726
      -0.386  0.000  0.922 -0.000 -0.000
     occupation matrix ns (before diag.):
       0.340 -0.000  0.002  0.030  0.000
      -0.000  0.204 -0.000  0.000 -0.053
       0.002 -0.000  0.356  0.042  0.000
       0.030  0.000  0.042  0.360 -0.000
       0.000 -0.053  0.000 -0.000  0.308
     SPIN  2
     eigenvalues:
       0.195  0.312  0.345  0.357  0.415
     eigenvectors (columns):
      -0.000 -0.569  0.000  0.739 -0.360
      -0.926 -0.000 -0.377  0.000 -0.000
       0.000 -0.484  0.000 -0.656 -0.580
       0.000  0.664 -0.000  0.156 -0.731
      -0.377  0.000  0.926 -0.000 -0.000
     occupation matrix ns (before diag.):
       0.350 -0.000 -0.001  0.032  0.000
      -0.000  0.216 -0.000  0.000 -0.053
      -0.001 -0.000  0.366  0.039  0.000
       0.032  0.000  0.039  0.368 -0.000
       0.000 -0.053  0.000 -0.000  0.324
     ------------------------ ATOM    8 ------------------------
     Tr[ns(  8)] (up, down, total) =   1.56800  1.62427  3.19227
     Atomic magnetic moment for atom   8 =  -0.05627
     SPIN  1
     eigenvalues:
       0.182  0.304  0.330  0.343  0.408
     eigenvectors (columns):
      -0.000 -0.525  0.000  0.780 -0.340
      -0.922 -0.000 -0.386  0.000 -0.000
       0.000 -0.520  0.000 -0.610 -0.598
       0.000  0.674 -0.000  0.138 -0.726
      -0.386  0.000  0.922 -0.000 -0.000
     occupation matrix ns (before diag.):
       0.340 -0.000  0.002  0.030  0.000
      -0.000  0.204 -0.000  0.000 -0.053
       0.002 -0.000  0.356  0.042  0.000
       0.030  0.000  0.042  0.360 -0.000
       0.000 -0.053  0.000 -0.000  0.308
     SPIN  2
     eigenvalues:
       0.195  0.312  0.345  0.357  0.415
     eigenvectors (columns):
      -0.000 -0.569  0.000  0.739 -0.360
      -0.926 -0.000 -0.377  0.000 -0.000
       0.000 -0.484  0.000 -0.656 -0.580
       0.000  0.664 -0.000  0.156 -0.731
      -0.377  0.000  0.926 -0.000 -0.000
     occupation matrix ns (before diag.):
       0.350 -0.000 -0.001  0.032  0.000
      -0.000  0.216 -0.000  0.000 -0.053
      -0.001 -0.000  0.366  0.039  0.000
       0.032  0.000  0.039  0.368 -0.000
       0.000 -0.053  0.000 -0.000  0.324

     Number of occupied Hubbard levels =   12.7691

     negative rho (up, down):  1.341E-01 1.337E-01

     HUBBARD ENERGY =    1.2147  (Ry)

     total cpu time spent up to now is      638.9 secs

     total energy              =   -2456.61961251 Ry
     estimated scf accuracy    <       0.00000002 Ry

     total magnetization       =     5.44 Bohr mag/cell
     absolute magnetization    =     6.34 Bohr mag/cell
[tb_dev] Currently allocated     0.00E+00 Mbytes, locked:    0 /   0
[tb_pin] Currently allocated     0.00E+00 Mbytes, locked:    0 /   0

     iteration #  7     ecut=    50.00 Ry     beta= 0.40
     CG style diagonalization

---- Real-time Memory Report at c_bands before calling an iterative solver
          7954 MiB given to the printing process from OS
             0 MiB allocation reported by mallinfo(arena+hblkhd)
        389354 MiB available memory on the node where the printing process lives
     GPU memory used/free/total (MiB): 5308 / 59636 / 64944
------------------
     ethr =  6.66E-12,  avg # of iterations =  4.1

     =================== HUBBARD OCCUPATIONS ===================
     ------------------------ ATOM    5 ------------------------
     Tr[ns(  5)] (up, down, total) =   1.56799  1.62426  3.19224
     Atomic magnetic moment for atom   5 =  -0.05627
     SPIN  1
     eigenvalues:
       0.182  0.304  0.330  0.343  0.408
     eigenvectors (columns):
       0.000  0.525 -0.000 -0.780  0.340
       0.922 -0.000  0.386 -0.000 -0.000
       0.000 -0.520 -0.000 -0.610 -0.598
      -0.000 -0.674 -0.000 -0.138  0.726
      -0.386 -0.000  0.922 -0.000 -0.000
     occupation matrix ns (before diag.):
       0.340 -0.000 -0.002  0.030  0.000
      -0.000  0.204 -0.000  0.000  0.053
      -0.002 -0.000  0.356 -0.042  0.000
       0.030  0.000 -0.042  0.360 -0.000
       0.000  0.053  0.000 -0.000  0.308
     SPIN  2
     eigenvalues:
       0.195  0.312  0.345  0.357  0.415
     eigenvectors (columns):
      -0.000  0.569 -0.000 -0.739  0.360
      -0.926 -0.000  0.377 -0.000 -0.000
      -0.000 -0.484 -0.000 -0.656 -0.580
       0.000 -0.664 -0.000 -0.156  0.731
       0.377 -0.000  0.926 -0.000 -0.000
     occupation matrix ns (before diag.):
       0.350 -0.000  0.001  0.032  0.000
      -0.000  0.216 -0.000  0.000  0.053
       0.001 -0.000  0.366 -0.039  0.000
       0.032  0.000 -0.039  0.368 -0.000
       0.000  0.053  0.000 -0.000  0.324
     ------------------------ ATOM    6 ------------------------
     Tr[ns(  6)] (up, down, total) =   1.56799  1.62426  3.19224
     Atomic magnetic moment for atom   6 =  -0.05627
     SPIN  1
     eigenvalues:
       0.182  0.304  0.330  0.343  0.408
     eigenvectors (columns):
       0.000  0.525 -0.000 -0.780  0.340
       0.922 -0.000  0.386 -0.000 -0.000
       0.000 -0.520 -0.000 -0.610 -0.598
      -0.000 -0.674 -0.000 -0.138  0.726
      -0.386 -0.000  0.922 -0.000 -0.000
     occupation matrix ns (before diag.):
       0.340 -0.000 -0.002  0.030  0.000
      -0.000  0.204 -0.000  0.000  0.053
      -0.002 -0.000  0.356 -0.042  0.000
       0.030  0.000 -0.042  0.360 -0.000
       0.000  0.053  0.000 -0.000  0.308
     SPIN  2
     eigenvalues:
       0.195  0.312  0.345  0.357  0.415
     eigenvectors (columns):
      -0.000  0.569 -0.000 -0.739  0.360
      -0.926 -0.000  0.377 -0.000 -0.000
      -0.000 -0.484 -0.000 -0.656 -0.580
       0.000 -0.664 -0.000 -0.156  0.731
       0.377 -0.000  0.926 -0.000 -0.000
     occupation matrix ns (before diag.):
       0.350 -0.000  0.001  0.032  0.000
      -0.000  0.216 -0.000  0.000  0.053
       0.001 -0.000  0.366 -0.039  0.000
       0.032  0.000 -0.039  0.368 -0.000
       0.000  0.053  0.000 -0.000  0.324
     ------------------------ ATOM    7 ------------------------
     Tr[ns(  7)] (up, down, total) =   1.56799  1.62426  3.19224
     Atomic magnetic moment for atom   7 =  -0.05627
     SPIN  1
     eigenvalues:
       0.182  0.304  0.330  0.343  0.408
     eigenvectors (columns):
      -0.000 -0.525  0.000  0.780 -0.340
      -0.922 -0.000 -0.386  0.000 -0.000
       0.000 -0.520  0.000 -0.610 -0.598
       0.000  0.674 -0.000  0.138 -0.726
      -0.386  0.000  0.922 -0.000 -0.000
     occupation matrix ns (before diag.):
       0.340 -0.000  0.002  0.030  0.000
      -0.000  0.204 -0.000  0.000 -0.053
       0.002 -0.000  0.356  0.042  0.000
       0.030  0.000  0.042  0.360 -0.000
       0.000 -0.053  0.000 -0.000  0.308
     SPIN  2
     eigenvalues:
       0.195  0.312  0.345  0.357  0.415
     eigenvectors (columns):
      -0.000 -0.569  0.000  0.739 -0.360
      -0.926 -0.000 -0.377  0.000 -0.000
       0.000 -0.484  0.000 -0.656 -0.580
       0.000  0.664 -0.000  0.156 -0.731
      -0.377  0.000  0.926 -0.000 -0.000
     occupation matrix ns (before diag.):
       0.350 -0.000 -0.001  0.032  0.000
      -0.000  0.216 -0.000  0.000 -0.053
      -0.001 -0.000  0.366  0.039  0.000
       0.032  0.000  0.039  0.368 -0.000
       0.000 -0.053  0.000 -0.000  0.324
     ------------------------ ATOM    8 ------------------------
     Tr[ns(  8)] (up, down, total) =   1.56799  1.62426  3.19224
     Atomic magnetic moment for atom   8 =  -0.05627
     SPIN  1
     eigenvalues:
       0.182  0.304  0.330  0.343  0.408
     eigenvectors (columns):
      -0.000 -0.525  0.000  0.780 -0.340
      -0.922 -0.000 -0.386  0.000 -0.000
       0.000 -0.520  0.000 -0.610 -0.598
       0.000  0.674 -0.000  0.138 -0.726
      -0.386  0.000  0.922 -0.000 -0.000
     occupation matrix ns (before diag.):
       0.340 -0.000  0.002  0.030  0.000
      -0.000  0.204 -0.000  0.000 -0.053
       0.002 -0.000  0.356  0.042  0.000
       0.030  0.000  0.042  0.360 -0.000
       0.000 -0.053  0.000 -0.000  0.308
     SPIN  2
     eigenvalues:
       0.195  0.312  0.345  0.357  0.415
     eigenvectors (columns):
      -0.000 -0.569  0.000  0.739 -0.360
      -0.926 -0.000 -0.377  0.000 -0.000
       0.000 -0.484  0.000 -0.656 -0.580
       0.000  0.664 -0.000  0.156 -0.731
      -0.377  0.000  0.926 -0.000 -0.000
     occupation matrix ns (before diag.):
       0.350 -0.000 -0.001  0.032  0.000
      -0.000  0.216 -0.000  0.000 -0.053
      -0.001 -0.000  0.366  0.039  0.000
       0.032  0.000  0.039  0.368 -0.000
       0.000 -0.053  0.000 -0.000  0.324

     Number of occupied Hubbard levels =   12.7690

     negative rho (up, down):  1.341E-01 1.337E-01

     HUBBARD ENERGY =    1.2147  (Ry)

     total cpu time spent up to now is      861.1 secs

     total energy              =   -2456.61961252 Ry
     estimated scf accuracy    <       0.00000001 Ry

     total magnetization       =     5.44 Bohr mag/cell
     absolute magnetization    =     6.34 Bohr mag/cell
[tb_dev] Currently allocated     0.00E+00 Mbytes, locked:    0 /   0
[tb_pin] Currently allocated     0.00E+00 Mbytes, locked:    0 /   0

     iteration #  8     ecut=    50.00 Ry     beta= 0.40
     CG style diagonalization

---- Real-time Memory Report at c_bands before calling an iterative solver
          7976 MiB given to the printing process from OS
             0 MiB allocation reported by mallinfo(arena+hblkhd)
        389431 MiB available memory on the node where the printing process lives
     GPU memory used/free/total (MiB): 5308 / 59636 / 64944
------------------
     ethr =  3.73E-12,  avg # of iterations =  3.3

     =================== HUBBARD OCCUPATIONS ===================
     ------------------------ ATOM    5 ------------------------
     Tr[ns(  5)] (up, down, total) =   1.56799  1.62425  3.19224
     Atomic magnetic moment for atom   5 =  -0.05626
     SPIN  1
     eigenvalues:
       0.182  0.304  0.330  0.343  0.408
     eigenvectors (columns):
       0.000  0.525 -0.000 -0.780  0.340
       0.922 -0.000  0.386 -0.000 -0.000
       0.000 -0.520 -0.000 -0.610 -0.598
      -0.000 -0.674 -0.000 -0.138  0.726
      -0.386 -0.000  0.922 -0.000 -0.000
     occupation matrix ns (before diag.):
       0.340 -0.000 -0.002  0.030  0.000
      -0.000  0.204 -0.000  0.000  0.053
      -0.002 -0.000  0.356 -0.042  0.000
       0.030  0.000 -0.042  0.360 -0.000
       0.000  0.053  0.000 -0.000  0.308
     SPIN  2
     eigenvalues:
       0.195  0.312  0.345  0.357  0.415
     eigenvectors (columns):
      -0.000  0.569 -0.000 -0.739  0.360
      -0.926 -0.000  0.377 -0.000 -0.000
      -0.000 -0.484 -0.000 -0.656 -0.580
       0.000 -0.664 -0.000 -0.156  0.731
       0.377 -0.000  0.926 -0.000 -0.000
     occupation matrix ns (before diag.):
       0.350 -0.000  0.001  0.032  0.000
      -0.000  0.216 -0.000  0.000  0.053
       0.001 -0.000  0.366 -0.039  0.000
       0.032  0.000 -0.039  0.368 -0.000
       0.000  0.053  0.000 -0.000  0.324
     ------------------------ ATOM    6 ------------------------
     Tr[ns(  6)] (up, down, total) =   1.56799  1.62425  3.19224
     Atomic magnetic moment for atom   6 =  -0.05626
     SPIN  1
     eigenvalues:
       0.182  0.304  0.330  0.343  0.408
     eigenvectors (columns):
       0.000  0.525 -0.000 -0.780  0.340
       0.922 -0.000  0.386 -0.000 -0.000
       0.000 -0.520 -0.000 -0.610 -0.598
      -0.000 -0.674 -0.000 -0.138  0.726
      -0.386 -0.000  0.922 -0.000 -0.000
     occupation matrix ns (before diag.):
       0.340 -0.000 -0.002  0.030  0.000
      -0.000  0.204 -0.000  0.000  0.053
      -0.002 -0.000  0.356 -0.042  0.000
       0.030  0.000 -0.042  0.360 -0.000
       0.000  0.053  0.000 -0.000  0.308
     SPIN  2
     eigenvalues:
       0.195  0.312  0.345  0.357  0.415
     eigenvectors (columns):
      -0.000  0.569 -0.000 -0.739  0.360
      -0.926 -0.000  0.377 -0.000 -0.000
      -0.000 -0.484 -0.000 -0.656 -0.580
       0.000 -0.664 -0.000 -0.156  0.731
       0.377 -0.000  0.926 -0.000 -0.000
     occupation matrix ns (before diag.):
       0.350 -0.000  0.001  0.032  0.000
      -0.000  0.216 -0.000  0.000  0.053
       0.001 -0.000  0.366 -0.039  0.000
       0.032  0.000 -0.039  0.368 -0.000
       0.000  0.053  0.000 -0.000  0.324
     ------------------------ ATOM    7 ------------------------
     Tr[ns(  7)] (up, down, total) =   1.56799  1.62425  3.19224
     Atomic magnetic moment for atom   7 =  -0.05626
     SPIN  1
     eigenvalues:
       0.182  0.304  0.330  0.343  0.408
     eigenvectors (columns):
      -0.000 -0.525  0.000  0.780 -0.340
      -0.922 -0.000 -0.386  0.000 -0.000
       0.000 -0.520  0.000 -0.610 -0.598
       0.000  0.674 -0.000  0.138 -0.726
      -0.386  0.000  0.922 -0.000 -0.000
     occupation matrix ns (before diag.):
       0.340 -0.000  0.002  0.030  0.000
      -0.000  0.204 -0.000  0.000 -0.053
       0.002 -0.000  0.356  0.042  0.000
       0.030  0.000  0.042  0.360 -0.000
       0.000 -0.053  0.000 -0.000  0.308
     SPIN  2
     eigenvalues:
       0.195  0.312  0.345  0.357  0.415
     eigenvectors (columns):
      -0.000 -0.569  0.000  0.739 -0.360
      -0.926 -0.000 -0.377  0.000 -0.000
       0.000 -0.484  0.000 -0.656 -0.580
       0.000  0.664 -0.000  0.156 -0.731
      -0.377  0.000  0.926 -0.000 -0.000
     occupation matrix ns (before diag.):
       0.350 -0.000 -0.001  0.032  0.000
      -0.000  0.216 -0.000  0.000 -0.053
      -0.001 -0.000  0.366  0.039  0.000
       0.032  0.000  0.039  0.368 -0.000
       0.000 -0.053  0.000 -0.000  0.324
     ------------------------ ATOM    8 ------------------------
     Tr[ns(  8)] (up, down, total) =   1.56799  1.62425  3.19224
     Atomic magnetic moment for atom   8 =  -0.05626
     SPIN  1
     eigenvalues:
       0.182  0.304  0.330  0.343  0.408
     eigenvectors (columns):
      -0.000 -0.525  0.000  0.780 -0.340
      -0.922 -0.000 -0.386  0.000 -0.000
       0.000 -0.520  0.000 -0.610 -0.598
       0.000  0.674 -0.000  0.138 -0.726
      -0.386  0.000  0.922 -0.000 -0.000
     occupation matrix ns (before diag.):
       0.340 -0.000  0.002  0.030  0.000
      -0.000  0.204 -0.000  0.000 -0.053
       0.002 -0.000  0.356  0.042  0.000
       0.030  0.000  0.042  0.360 -0.000
       0.000 -0.053  0.000 -0.000  0.308
     SPIN  2
     eigenvalues:
       0.195  0.312  0.345  0.357  0.415
     eigenvectors (columns):
      -0.000 -0.569  0.000  0.739 -0.360
      -0.926 -0.000 -0.377  0.000 -0.000
      -0.000 -0.484  0.000 -0.656 -0.580
       0.000  0.664 -0.000  0.156 -0.731
      -0.377  0.000  0.926 -0.000 -0.000
     occupation matrix ns (before diag.):
       0.350 -0.000 -0.001  0.032  0.000
      -0.000  0.216 -0.000  0.000 -0.053
      -0.001 -0.000  0.366  0.039  0.000
       0.032  0.000  0.039  0.368 -0.000
       0.000 -0.053  0.000 -0.000  0.324

     Number of occupied Hubbard levels =   12.7690

     negative rho (up, down):  1.341E-01 1.337E-01

     HUBBARD ENERGY =    1.2147  (Ry)
 
     Magnetic moment per site  (integrated on atomic sphere of radius R)
     atom   1 (R=0.149)  charge=  6.8380  magn=  0.0012
     atom   2 (R=0.149)  charge=  6.8380  magn=  0.0012
     atom   3 (R=0.149)  charge=  6.8380  magn=  0.0012
     atom   4 (R=0.149)  charge=  6.8380  magn=  0.0012
     atom   5 (R=0.098)  charge=  8.1403  magn= -0.0313
     atom   6 (R=0.098)  charge=  8.1403  magn= -0.0313
     atom   7 (R=0.098)  charge=  8.1403  magn= -0.0313
     atom   8 (R=0.098)  charge=  8.1403  magn= -0.0313
     atom   9 (R=0.094)  charge=  0.7853  magn= -0.0031
     atom  10 (R=0.094)  charge=  0.7853  magn= -0.0031
     atom  11 (R=0.094)  charge=  0.7853  magn= -0.0031
     atom  12 (R=0.094)  charge=  0.7853  magn= -0.0031
     atom  13 (R=0.094)  charge=  0.8055  magn= -0.0079
     atom  14 (R=0.094)  charge=  0.8055  magn= -0.0079
     atom  15 (R=0.094)  charge=  0.8055  magn= -0.0079
     atom  16 (R=0.094)  charge=  0.8055  magn= -0.0079
     atom  17 (R=0.094)  charge=  4.0954  magn=  0.2107
     atom  18 (R=0.094)  charge=  4.0954  magn=  0.2107
     atom  19 (R=0.094)  charge=  4.0954  magn=  0.2107
     atom  20 (R=0.094)  charge=  4.0954  magn=  0.2107
     atom  21 (R=0.094)  charge=  4.0954  magn=  0.2107
     atom  22 (R=0.094)  charge=  4.0954  magn=  0.2107
     atom  23 (R=0.094)  charge=  4.0954  magn=  0.2107
     atom  24 (R=0.094)  charge=  4.0954  magn=  0.2107
     atom  25 (R=0.094)  charge=  4.1192  magn=  0.1529
     atom  26 (R=0.094)  charge=  4.1192  magn=  0.1529
     atom  27 (R=0.094)  charge=  4.1192  magn=  0.1529
     atom  28 (R=0.094)  charge=  4.1192  magn=  0.1529
     atom  29 (R=0.094)  charge=  4.0245  magn=  0.0391
     atom  30 (R=0.094)  charge=  4.0245  magn=  0.0391
     atom  31 (R=0.094)  charge=  4.0245  magn=  0.0391
     atom  32 (R=0.094)  charge=  4.0245  magn=  0.0391
     atom  33 (R=0.094)  charge=  4.1118  magn=  0.0224
     atom  34 (R=0.094)  charge=  4.1118  magn=  0.0224
     atom  35 (R=0.094)  charge=  4.1118  magn=  0.0224
     atom  36 (R=0.094)  charge=  4.1118  magn=  0.0224
     atom  37 (R=0.094)  charge=  4.1249  magn=  0.0479
     atom  38 (R=0.094)  charge=  4.1249  magn=  0.0479
     atom  39 (R=0.094)  charge=  4.1249  magn=  0.0479
     atom  40 (R=0.094)  charge=  4.1249  magn=  0.0479
     atom  41 (R=0.094)  charge=  4.1249  magn=  0.0479
     atom  42 (R=0.094)  charge=  4.1249  magn=  0.0479
     atom  43 (R=0.094)  charge=  4.1249  magn=  0.0479
     atom  44 (R=0.094)  charge=  4.1249  magn=  0.0479
     atom  45 (R=0.094)  charge=  4.0918  magn=  0.2166
     atom  46 (R=0.094)  charge=  4.0918  magn=  0.2166
     atom  47 (R=0.094)  charge=  4.0918  magn=  0.2166
     atom  48 (R=0.094)  charge=  4.0918  magn=  0.2166
     atom  49 (R=0.094)  charge=  4.1345  magn=  0.0720
     atom  50 (R=0.094)  charge=  4.1345  magn=  0.0720
     atom  51 (R=0.094)  charge=  4.1345  magn=  0.0720
     atom  52 (R=0.094)  charge=  4.1345  magn=  0.0720

     total cpu time spent up to now is     1032.0 secs

     End of self-consistent calculation

 ------ SPIN UP ------------


          k = 0.0000 0.0000 0.0000 ( 29417 PWs)   bands (ev):

   -61.8200 -61.8200 -61.8200 -61.8200 -35.9007 -35.9007 -35.9007 -35.9006
   -35.8243 -35.8243 -35.8241 -35.8241 -35.7347 -35.7347 -35.7346 -35.7346
   -28.5540 -28.5540 -28.5535 -28.5534 -17.3397 -17.3284 -17.2125 -17.2100
   -17.1454 -17.0896 -17.0465 -17.0451 -15.0731 -15.0474 -14.8504 -14.8426
   -14.7954 -14.7653 -14.7401 -14.7267 -14.7154 -14.7072 -14.7059 -14.6620
   -14.6326 -14.6175 -14.5695 -14.5674 -14.5488 -14.5465 -14.5291 -14.5201
   -14.4436 -14.4226 -14.4045 -14.3929 -13.1637 -13.1582 -13.1442 -13.1424
   -10.6558 -10.6510 -10.6487 -10.6219 -10.5799 -10.5615 -10.5448 -10.5404
   -10.5305 -10.5290 -10.5222 -10.5206  -5.0500  -5.0173  -4.8969  -4.8549
    -3.9479  -3.8933  -3.6954  -3.6515  -3.0886  -3.0588  -2.8969  -2.8607
    -2.6204  -2.5546  -2.3949  -2.3666  -2.0525  -2.0147  -1.9873  -1.9862
    -1.9037  -1.8249  -1.7508  -1.6955  -1.6239  -1.5280  -1.4760  -1.4366
    -1.3209  -1.2846  -1.0381  -1.0147  -0.6739  -0.5181  -0.4910  -0.4295
    -0.4110  -0.4026  -0.3652  -0.3581  -0.2709  -0.1762  -0.1716  -0.1434
     0.0144   0.0785   0.0947   0.1822   0.2098   0.3189   0.3300   0.3990
     0.4068   0.4212   0.4825   0.4945   0.5445   0.5880   0.5992   0.6525
     0.6882   0.7613   0.8222   0.8658   0.9416   0.9596   0.9662   0.9734
     1.0140   1.0277   1.0447   1.1035   1.1202   1.2576   1.3522   1.4179
     1.4308   1.4367   1.4376   1.4440   1.4485   1.4507   1.5348   1.5969
     1.6116   1.6613   2.0404   2.0417   2.1041   2.1488   2.1634   2.1814
     2.2406   2.2629   2.3408   2.3549   2.3871   2.4031   2.5176   2.5568
     2.5660   2.6023   2.6188   2.6290   2.6555   2.7124   2.7581   2.7718
     5.4377   5.4475   5.7901   5.8051   6.4404   6.4563   6.4592   6.4703
     6.4730   6.4798   6.5155   6.5970   6.8280   6.8536   7.1998   7.2012
     8.1979   8.2439   8.3483   8.3633   9.0575  10.0379  10.4811  10.7419
    10.8380  10.9868  11.0451  11.0738  11.1965  11.2410  11.2684  11.5588
    11.6228

     occupation numbers 
     1.0000   1.0000   1.0000   1.0000   1.0000   1.0000   1.0000   1.0000
     1.0000   1.0000   1.0000   1.0000   1.0000   1.0000   1.0000   1.0000
     1.0000   1.0000   1.0000   1.0000   1.0000   1.0000   1.0000   1.0000
     1.0000   1.0000   1.0000   1.0000   1.0000   1.0000   1.0000   1.0000
     1.0000   1.0000   1.0000   1.0000   1.0000   1.0000   1.0000   1.0000
     1.0000   1.0000   1.0000   1.0000   1.0000   1.0000   1.0000   1.0000
     1.0000   1.0000   1.0000   1.0000   1.0000   1.0000   1.0000   1.0000
     1.0000   1.0000   1.0000   1.0000   1.0000   1.0000   1.0000   1.0000
     1.0000   1.0000   1.0000   1.0000   1.0000   1.0000   1.0000   1.0000
     1.0000   1.0000   1.0000   1.0000   1.0000   1.0000   1.0000   1.0000
     1.0000   1.0000   1.0000   1.0000   1.0000   1.0000   1.0000   1.0000
     1.0000   1.0000   1.0000   1.0000   1.0000   1.0000   1.0000   1.0000
     1.0000   1.0000   1.0000   1.0000   1.0000   1.0000   1.0000   1.0000
     1.0000   1.0000   1.0000   1.0000   1.0000   1.0000   1.0000   1.0000
     1.0000   1.0000   1.0000   1.0000   1.0000   1.0000   1.0000   1.0000
     1.0000   1.0000   1.0000   1.0000   1.0000   1.0000   1.0000   1.0000
     1.0000   1.0000   1.0000   1.0000   1.0000   1.0000   1.0000   1.0000
     1.0000   1.0000   1.0000   1.0000   1.0000   1.0000   1.0000   1.0000
     1.0000   1.0000   1.0000   1.0000   1.0000   1.0000   1.0000   1.0000
     1.0000   1.0000   1.0001   1.0001   1.0002   1.0005   1.0007   1.0009
     1.0024   1.0034   1.0097   1.0116   1.0168   1.0199   1.0532   1.0665
     1.0694   1.0790   1.0817   1.0828   1.0827   1.0630   1.0225   1.0054
     0.0000   0.0000   0.0000   0.0000   0.0000   0.0000   0.0000   0.0000
     0.0000   0.0000   0.0000   0.0000   0.0000   0.0000   0.0000   0.0000
     0.0000   0.0000   0.0000   0.0000   0.0000   0.0000   0.0000   0.0000
     0.0000   0.0000   0.0000   0.0000   0.0000   0.0000   0.0000   0.0000
     0.0000

          k = 0.0000 0.0000 0.1662 ( 29357 PWs)   bands (ev):

   -61.8200 -61.8200 -61.8200 -61.8199 -35.9007 -35.9007 -35.9006 -35.9006
   -35.8243 -35.8243 -35.8241 -35.8241 -35.7347 -35.7347 -35.7346 -35.7346
   -28.5540 -28.5540 -28.5535 -28.5534 -17.3368 -17.3311 -17.2132 -17.2123
   -17.1316 -17.1047 -17.0438 -17.0438 -15.0686 -15.0558 -14.8471 -14.8434
   -14.7888 -14.7743 -14.7371 -14.7306 -14.7128 -14.7081 -14.6908 -14.6682
   -14.6314 -14.6248 -14.5656 -14.5569 -14.5536 -14.5390 -14.5320 -14.5300
   -14.4314 -14.4199 -14.4115 -14.4056 -13.1623 -13.1595 -13.1438 -13.1429
   -10.6518 -10.6492 -10.6294 -10.6050 -10.5921 -10.5653 -10.5597 -10.5512
   -10.5301 -10.5294 -10.5218 -10.5210  -5.0413  -5.0250  -4.8861  -4.8652
    -3.9406  -3.9146  -3.6757  -3.6550  -3.0846  -3.0698  -2.8871  -2.8690
    -2.6019  -2.5679  -2.3946  -2.3793  -2.0309  -1.9971  -1.9936  -1.9858
    -1.8781  -1.8342  -1.7407  -1.6723  -1.6709  -1.6018  -1.4497  -1.4379
    -1.2694  -1.2355  -1.1087  -1.0771  -0.6100  -0.5165  -0.5095  -0.5006
    -0.3961  -0.3912  -0.3427  -0.2990  -0.2746  -0.1877  -0.1833  -0.1787
     0.0339   0.0684   0.1084   0.1680   0.2559   0.3165   0.3235   0.3403
     0.3824   0.4297   0.4773   0.4865   0.6028   0.6089   0.6325   0.6384
     0.7699   0.7754   0.8191   0.8322   0.9185   0.9234   0.9328   0.9388
     1.0133   1.0230   1.0811   1.1078   1.1841   1.2560   1.3761   1.3932
     1.4119   1.4139   1.4226   1.4235   1.4581   1.4718   1.5390   1.5707
     1.6253   1.6519   2.0477   2.1038   2.1087   2.1317   2.1654   2.1718
     2.1980   2.2131   2.3686   2.3729   2.3919   2.4000   2.5486   2.5712
     2.6023   2.6063   2.6071   2.6153   2.6290   2.6768   2.7658   2.7731
     5.4410   5.4460   5.7929   5.8005   6.4441   6.4519   6.4651   6.4717
     6.4728   6.4753   6.5359   6.5768   6.8313   6.8438   7.2015   7.2021
     8.2107   8.2344   8.3515   8.3587   9.2223   9.6492  10.7204  10.7490
    10.8613  10.9920  11.0753  11.0972  11.2562  11.2842  11.3368  11.4208
    11.4457

     occupation numbers 
     1.0000   1.0000   1.0000   1.0000   1.0000   1.0000   1.0000   1.0000
     1.0000   1.0000   1.0000   1.0000   1.0000   1.0000   1.0000   1.0000
     1.0000   1.0000   1.0000   1.0000   1.0000   1.0000   1.0000   1.0000
[...]
     atom   52 type  1   force =     0.00000000    1.10354910   -7.33867112
     The core correction contribution to forces
     atom    1 type  3   force =    -0.00000000    0.00012042    0.00131255
     atom    2 type  3   force =    -0.00000000   -0.00012042    0.00131255
     atom    3 type  3   force =    -0.00000000   -0.00012042   -0.00131255
     atom    4 type  3   force =    -0.00000000    0.00012042   -0.00131255
     atom    5 type  4   force =    -0.00000000    0.02584144   -0.00995674
     atom    6 type  4   force =    -0.00000000   -0.02584144    0.00995674
     atom    7 type  4   force =    -0.00000000    0.02584144    0.00995674
     atom    8 type  4   force =    -0.00000000   -0.02584144   -0.00995674
     atom    9 type  2   force =    -0.00000000   -0.00820206    0.00724337
     atom   10 type  2   force =    -0.00000000    0.00820206   -0.00724337
     atom   11 type  2   force =    -0.00000000   -0.00820206   -0.00724337
     atom   12 type  2   force =    -0.00000000    0.00820206    0.00724337
     atom   13 type  2   force =    -0.00000000    0.00605875   -0.00361864
     atom   14 type  2   force =    -0.00000000   -0.00605875    0.00361864
     atom   15 type  2   force =    -0.00000000    0.00605875    0.00361864
     atom   16 type  2   force =    -0.00000000   -0.00605875   -0.00361864
     atom   17 type  1   force =    -0.01094723   -0.00388852    0.00887845
     atom   18 type  1   force =    -0.01094723    0.00388852   -0.00887845
     atom   19 type  1   force =     0.01094723   -0.00388852   -0.00887845
     atom   20 type  1   force =     0.01094723    0.00388852    0.00887845
     atom   21 type  1   force =     0.01094723    0.00388852   -0.00887845
     atom   22 type  1   force =     0.01094723   -0.00388852    0.00887845
     atom   23 type  1   force =    -0.01094723    0.00388852    0.00887845
     atom   24 type  1   force =    -0.01094723   -0.00388852   -0.00887845
     atom   25 type  1   force =     0.00000000    0.01046037    0.00863189
     atom   26 type  1   force =     0.00000000   -0.01046037   -0.00863189
     atom   27 type  1   force =     0.00000000    0.01046037   -0.00863189
     atom   28 type  1   force =     0.00000000   -0.01046037    0.00863189
     atom   29 type  1   force =     0.00000000   -0.00554002    0.00271867
     atom   30 type  1   force =     0.00000000    0.00554002   -0.00271867
     atom   31 type  1   force =     0.00000000   -0.00554002   -0.00271867
     atom   32 type  1   force =     0.00000000    0.00554002    0.00271867
     atom   33 type  1   force =     0.00000000   -0.01306194   -0.00026397
     atom   34 type  1   force =     0.00000000    0.01306194    0.00026397
     atom   35 type  1   force =     0.00000000   -0.01306194    0.00026397
     atom   36 type  1   force =     0.00000000    0.01306194   -0.00026397
     atom   37 type  1   force =     0.00490960   -0.00102176   -0.00959042
     atom   38 type  1   force =     0.00490960    0.00102176    0.00959042
     atom   39 type  1   force =    -0.00490960   -0.00102176    0.00959042
     atom   40 type  1   force =    -0.00490960    0.00102176   -0.00959042
     atom   41 type  1   force =    -0.00490960    0.00102176    0.00959042
     atom   42 type  1   force =    -0.00490960   -0.00102176   -0.00959042
     atom   43 type  1   force =     0.00490960    0.00102176   -0.00959042
     atom   44 type  1   force =     0.00490960   -0.00102176    0.00959042
     atom   45 type  1   force =     0.00000000   -0.00778684    0.00944048
     atom   46 type  1   force =     0.00000000    0.00778684   -0.00944048
     atom   47 type  1   force =     0.00000000   -0.00778684   -0.00944048
     atom   48 type  1   force =     0.00000000    0.00778684    0.00944048
     atom   49 type  1   force =     0.00000000    0.00960101    0.00017960
     atom   50 type  1   force =     0.00000000   -0.00960101   -0.00017960
     atom   51 type  1   force =     0.00000000    0.00960101   -0.00017960
     atom   52 type  1   force =     0.00000000   -0.00960101    0.00017960
     The Hubbard contrib.    to forces
     atom    1 type  3   force =     0.00000000   -0.00002033   -0.00013238
     atom    2 type  3   force =     0.00000000    0.00002033   -0.00013238
     atom    3 type  3   force =     0.00000000    0.00002033    0.00013238
     atom    4 type  3   force =     0.00000000   -0.00002033    0.00013238
     atom    5 type  4   force =     0.00000000    0.02532940   -0.01212539
     atom    6 type  4   force =     0.00000000   -0.02532940    0.01212539
     atom    7 type  4   force =     0.00000000    0.02532940    0.01212539
     atom    8 type  4   force =     0.00000000   -0.02532940   -0.01212539
     atom    9 type  2   force =     0.00000000   -0.00004753    0.00019836
     atom   10 type  2   force =     0.00000000    0.00004753   -0.00019836
     atom   11 type  2   force =     0.00000000   -0.00004753   -0.00019836
     atom   12 type  2   force =     0.00000000    0.00004753    0.00019836
     atom   13 type  2   force =     0.00000000   -0.00013376    0.00043406
     atom   14 type  2   force =     0.00000000    0.00013376   -0.00043406
     atom   15 type  2   force =     0.00000000   -0.00013376   -0.00043406
     atom   16 type  2   force =     0.00000000    0.00013376    0.00043406
     atom   17 type  1   force =     0.00002296    0.00003687   -0.00000001
     atom   18 type  1   force =     0.00002296   -0.00003687    0.00000001
     atom   19 type  1   force =    -0.00002296    0.00003687    0.00000001
     atom   20 type  1   force =    -0.00002296   -0.00003687   -0.00000001
     atom   21 type  1   force =    -0.00002296   -0.00003687    0.00000001
     atom   22 type  1   force =    -0.00002296    0.00003687   -0.00000001
     atom   23 type  1   force =     0.00002296   -0.00003687   -0.00000001
     atom   24 type  1   force =     0.00002296    0.00003687    0.00000001
     atom   25 type  1   force =     0.00000000    0.00000854   -0.00000776
     atom   26 type  1   force =     0.00000000   -0.00000854    0.00000776
     atom   27 type  1   force =     0.00000000    0.00000854    0.00000776
     atom   28 type  1   force =     0.00000000   -0.00000854   -0.00000776
     atom   29 type  1   force =     0.00000000    0.01364124   -0.00562213
     atom   30 type  1   force =     0.00000000   -0.01364124    0.00562213
     atom   31 type  1   force =     0.00000000    0.01364124    0.00562213
     atom   32 type  1   force =     0.00000000   -0.01364124   -0.00562213
     atom   33 type  1   force =     0.00000000    0.00178681    0.00852357
     atom   34 type  1   force =     0.00000000   -0.00178681   -0.00852357
     atom   35 type  1   force =     0.00000000    0.00178681   -0.00852357
     atom   36 type  1   force =     0.00000000   -0.00178681    0.00852357
     atom   37 type  1   force =     0.00525196    0.00076329    0.00119733
     atom   38 type  1   force =     0.00525196   -0.00076329   -0.00119733
     atom   39 type  1   force =    -0.00525196    0.00076329   -0.00119733
     atom   40 type  1   force =    -0.00525196   -0.00076329    0.00119733
     atom   41 type  1   force =    -0.00525196   -0.00076329   -0.00119733
     atom   42 type  1   force =    -0.00525196    0.00076329    0.00119733
     atom   43 type  1   force =     0.00525196   -0.00076329    0.00119733
     atom   44 type  1   force =     0.00525196    0.00076329   -0.00119733
     atom   45 type  1   force =     0.00000000    0.00052596    0.00036047
     atom   46 type  1   force =     0.00000000   -0.00052596   -0.00036047
     atom   47 type  1   force =     0.00000000    0.00052596   -0.00036047
     atom   48 type  1   force =     0.00000000   -0.00052596    0.00036047
     atom   49 type  1   force =     0.00000000    0.00397012   -0.00746636
     atom   50 type  1   force =     0.00000000   -0.00397012    0.00746636
     atom   51 type  1   force =     0.00000000    0.00397012    0.00746636
     atom   52 type  1   force =     0.00000000   -0.00397012   -0.00746636
     The SCF correction term to forces
     atom    1 type  3   force =     0.00000000   -0.00000036    0.00000117
     atom    2 type  3   force =     0.00000000    0.00000036    0.00000117
     atom    3 type  3   force =    -0.00000000    0.00000036   -0.00000117
     atom    4 type  3   force =    -0.00000000   -0.00000036   -0.00000117
     atom    5 type  4   force =    -0.00000000    0.00000107   -0.00000359
     atom    6 type  4   force =     0.00000000   -0.00000107    0.00000359
     atom    7 type  4   force =    -0.00000000    0.00000107    0.00000359
     atom    8 type  4   force =     0.00000000   -0.00000107   -0.00000359
     atom    9 type  2   force =     0.00000000   -0.00000007    0.00000000
     atom   10 type  2   force =    -0.00000000    0.00000007   -0.00000000
     atom   11 type  2   force =    -0.00000000   -0.00000007   -0.00000000
     atom   12 type  2   force =     0.00000000    0.00000007    0.00000000
     atom   13 type  2   force =     0.00000000   -0.00000072    0.00000054
     atom   14 type  2   force =    -0.00000000    0.00000072   -0.00000054
     atom   15 type  2   force =    -0.00000000   -0.00000072   -0.00000054
     atom   16 type  2   force =     0.00000000    0.00000072    0.00000054
     atom   17 type  1   force =    -0.00000005    0.00000055   -0.00000009
     atom   18 type  1   force =    -0.00000005   -0.00000055    0.00000009
     atom   19 type  1   force =     0.00000005    0.00000055    0.00000009
     atom   20 type  1   force =     0.00000005   -0.00000055   -0.00000009
     atom   21 type  1   force =     0.00000005   -0.00000055    0.00000009
     atom   22 type  1   force =     0.00000005    0.00000055   -0.00000009
     atom   23 type  1   force =    -0.00000005   -0.00000055   -0.00000009
     atom   24 type  1   force =    -0.00000005    0.00000055    0.00000009
     atom   25 type  1   force =     0.00000000    0.00000265    0.00000214
     atom   26 type  1   force =    -0.00000000   -0.00000265   -0.00000214
     atom   27 type  1   force =    -0.00000000    0.00000265   -0.00000214
     atom   28 type  1   force =     0.00000000   -0.00000265    0.00000214
     atom   29 type  1   force =    -0.00000000   -0.00000078   -0.00000006
     atom   30 type  1   force =     0.00000000    0.00000078    0.00000006
     atom   31 type  1   force =     0.00000000   -0.00000078    0.00000006
     atom   32 type  1   force =     0.00000000    0.00000078   -0.00000006
     atom   33 type  1   force =     0.00000000   -0.00000001   -0.00000009
     atom   34 type  1   force =    -0.00000000    0.00000001    0.00000009
     atom   35 type  1   force =    -0.00000000   -0.00000001    0.00000009
     atom   36 type  1   force =     0.00000000    0.00000001   -0.00000009
     atom   37 type  1   force =     0.00000210    0.00000014   -0.00000188
     atom   38 type  1   force =     0.00000210   -0.00000014    0.00000188
     atom   39 type  1   force =    -0.00000210    0.00000014    0.00000188
     atom   40 type  1   force =    -0.00000210   -0.00000014   -0.00000188
     atom   41 type  1   force =    -0.00000210   -0.00000014    0.00000188
     atom   42 type  1   force =    -0.00000210    0.00000014   -0.00000188
     atom   43 type  1   force =     0.00000210   -0.00000014   -0.00000188
     atom   44 type  1   force =     0.00000210    0.00000014    0.00000188
     atom   45 type  1   force =     0.00000000    0.00000045   -0.00000039
     atom   46 type  1   force =    -0.00000000   -0.00000045    0.00000039
     atom   47 type  1   force =    -0.00000000    0.00000045    0.00000039
     atom   48 type  1   force =     0.00000000   -0.00000045   -0.00000039
     atom   49 type  1   force =    -0.00000000    0.00000194   -0.00000113
     atom   50 type  1   force =     0.00000000   -0.00000194    0.00000113
     atom   51 type  1   force =     0.00000000    0.00000194    0.00000113
     atom   52 type  1   force =    -0.00000000   -0.00000194   -0.00000113

     Total force =     0.001391     Total SCF correction =     0.000014


     Computing stress (Cartesian axis) and pressure


     negative rho (up, down):  1.349E-01 1.346E-01
     stres_hub    :    366.13s CPU    369.18s WALL (       5 calls)
     dprojdepsilo :    299.08s CPU    301.37s WALL (    2880 calls)
     dprojdeps1   :    105.10s CPU    105.69s WALL (    2880 calls)
     dprojdeps2   :    122.41s CPU    123.37s WALL (    2880 calls)
     dprojdeps3   :     71.55s CPU     72.30s WALL (    2880 calls)
          total   stress  (Ry/bohr**3)                   (kbar)     P=        8.45
   0.00001631   0.00000000   0.00000000            2.40        0.00        0.00
   0.00000000   0.00013986   0.00000000            0.00       20.57        0.00
   0.00000000   0.00000000   0.00001615            0.00        0.00        2.38

     kinetic stress (kbar)  17021.32      0.00      0.00
                                0.00  17311.70      0.00
                                0.00      0.00  17006.51

     local   stress (kbar) -18307.62     -0.00     -0.00
                               -0.00  -8128.57     -0.00
                               -0.00     -0.00 -15219.76

     nonloc. stress (kbar)   4220.03      0.00      0.00
                                0.00   4134.15      0.00
                                0.00      0.00   4190.15

     hartree stress (kbar)   9916.86     -0.00      0.00
                               -0.00   5344.82     -0.00
                                0.00     -0.00   8170.74

     exc-cor stress (kbar)  -1713.01     -0.00      0.00
                               -0.00  -1712.76     -0.00
                                0.00     -0.00  -1711.10

     corecor stress (kbar)  -2148.67      0.00     -0.00
                                0.00  -2148.33     -0.00
                               -0.00     -0.00  -2148.98

     ewald   stress (kbar)  -8995.13      0.00      0.00
                                0.00 -14790.35      0.00
                                0.00      0.00 -10295.47

     hubbard stress (kbar)      8.63      0.00      0.00
                                0.00      9.91      0.00
                                0.00      0.00     10.29

     DFT-D   stress (kbar)      0.00      0.00      0.00
                                0.00      0.00      0.00
                                0.00      0.00      0.00

     XDM     stress (kbar)      0.00      0.00      0.00
                                0.00      0.00      0.00
                                0.00      0.00      0.00

     dft-nl  stress (kbar)      0.00      0.00      0.00
                                0.00      0.00      0.00
                                0.00      0.00      0.00

     TS-vdW  stress (kbar)      0.00      0.00      0.00
                                0.00      0.00      0.00
                                0.00      0.00      0.00

     MDB     stress (kbar)      0.00      0.00      0.00
                                0.00      0.00      0.00
                                0.00      0.00      0.00

     3D-RISM stress (kbar)      0.00      0.00      0.00
                                0.00      0.00      0.00
                                0.00      0.00      0.00


     Writing all to output data dir ./out/aiida.save/ :
     XML data file, charge density, pseudopotentials, collected wavefunctions
 
     init_run     :     14.72s CPU     18.25s WALL (       2 calls)
     electrons    :  14498.47s CPU  14633.13s WALL (       5 calls)
     update_pot   :      2.00s CPU      2.02s WALL (       3 calls)
     forces       :    188.80s CPU    190.48s WALL (       5 calls)
     stress       :    385.29s CPU    388.47s WALL (       5 calls)

     Called by init_run:
     wfcinit      :      8.70s CPU     10.71s WALL (       2 calls)
     wfcinit:atom :      0.24s CPU      0.24s WALL (      64 calls)
     wfcinit:wfcr :      3.53s CPU      3.60s WALL (      64 calls)
     potinit      :      1.03s CPU      2.03s WALL (       2 calls)
     hinit0       :      4.16s CPU      4.37s WALL (       2 calls)

     Called by electrons:
     c_bands      :  14105.06s CPU  14236.33s WALL (      69 calls)
     sum_band     :    351.81s CPU    353.98s WALL (      69 calls)
     v_of_rho     :      2.24s CPU      2.31s WALL (      71 calls)
     v_h          :      0.81s CPU      0.83s WALL (      71 calls)
     v_xc         :      1.63s CPU      1.69s WALL (      81 calls)
     newd         :      4.18s CPU      4.28s WALL (      71 calls)
     PAW_pot      :     26.19s CPU     26.37s WALL (      74 calls)
     mix_rho      :      4.61s CPU      5.12s WALL (      69 calls)

     Called by c_bands:
     init_us_2    :     16.38s CPU     16.51s WALL (   10652 calls)
     ccgdiagg     :  13750.98s CPU  13870.71s WALL (    4654 calls)
     wfcrot       :    172.39s CPU    173.36s WALL (    4270 calls)
                                      173.35s GPU  (    4270 calls)

     Called by sum_band:
     sum_band:wei :      0.89s CPU      0.90s WALL (      69 calls)
     sum_band:loo :    169.72s CPU    170.65s WALL (      69 calls)
     sum_band:buf :     81.41s CPU     81.94s WALL (    4416 calls)
     sum_band:ini :      6.83s CPU      6.88s WALL (    4416 calls)
     sum_band:cal :      0.25s CPU      0.25s WALL (    4608 calls)
     sum_band:bec :     16.71s CPU     16.79s WALL (    4608 calls)
     addusdens    :      8.97s CPU      9.06s WALL (      69 calls)
                                        9.06s GPU  (      69 calls)
     addusd:skk   :      0.11s CPU      0.12s WALL (     276 calls)
                                        0.12s GPU  (     276 calls)

     Called by *cgdiagg:
     h_psi        :   4806.19s CPU   4872.73s WALL ( 2730004 calls)
     s_psi        :   6892.74s CPU   6937.85s WALL ( 5457338 calls)

     Called by h_psi:
     h_psi:calbec :     30.73s CPU     31.15s WALL ( 2730004 calls)
     vloc_psi     :    873.18s CPU    909.28s WALL ( 2730004 calls)
                                      891.63s GPU  ( 2730004 calls)
     add_vuspsi   :   2956.44s CPU   3006.22s WALL ( 2730004 calls)
     vhpsi        :    864.04s CPU    868.49s WALL ( 2730004 calls)
     hs_1psi      :   7902.56s CPU   8575.70s WALL ( 2725734 calls)
                                     8558.04s GPU  ( 2725734 calls)
     s_1psi       :   3716.92s CPU   4318.56s WALL ( 2725734 calls)
                                     4300.98s GPU  ( 2725734 calls)

     General routines
     calbec       :    186.85s CPU    189.07s WALL ( 9802766 calls)
     fft          :      3.84s CPU      4.10s WALL (    1974 calls)
                                        0.26s GPU  (    1832 calls)
     ffts         :      1.07s CPU      1.08s WALL (     280 calls)
                                        0.01s GPU  (     138 calls)
     fftw         :     47.77s CPU    406.13s WALL ( 5633236 calls)
                                      371.12s GPU  ( 5633236 calls)
     interpolate  :      5.54s CPU      5.58s WALL (     142 calls)
     davcio       :      0.02s CPU      5.10s WALL (      68 calls)
 
     Parallel routines

     Hubbard U routines
     new_ns       :    167.83s CPU    168.92s WALL (      69 calls)
     vhpsi        :    864.04s CPU    868.49s WALL ( 2730004 calls)
     force_hub    :    176.77s CPU    178.38s WALL (       5 calls)
     stres_hub    :    366.13s CPU    369.18s WALL (       5 calls)

     PAW routines
     PAW_pot      :     26.19s CPU     26.37s WALL (      74 calls)
     PAW_symme    :      0.05s CPU      0.05s WALL (     142 calls)
 
     PWSCF        :      4h11m CPU      4h14m WALL

 
   This run was terminated on:  14:22:14  18Oct2025            

=------------------------------------------------------------------------------=
   JOB DONE.
=------------------------------------------------------------------------------=
