
     Program PWSCF v.7.4.1 starts on 15Oct2025 at 20:58:55 

     This program is part of the open-source Quantum ESPRESSO suite
     for quantum simulation of materials; please cite
         "P. Giannozzi et al., J. Phys.:Condens. Matter 21 395502 (2009);
         "P. Giannozzi et al., J. Phys.:Condens. Matter 29 465901 (2017);
         "P. Giannozzi et al., J. Chem. Phys. 152 154105 (2020);
          URL http://www.quantum-espresso.org", 
     in publications or presentations arising from this work. More details at
     http://www.quantum-espresso.org/quote

     Parallel version (MPI & OpenMP), running on       1 processor cores
     Number of MPI processes:                 1
     Threads/MPI process:                     1

     MPI processes distributed on     1 nodes
     440082 MiB available memory on the printing compute node when the environment starts
 
     Reading input from pwscf.in
Warning: card &FCP ignored
Warning: card &RISM ignored

     Current dimensions of program PWSCF are:
     Max number of different atomic species (ntypx) = 10
     Max number of k-points (npk) =  40000
     Max angular momentum in pseudopotentials (lmaxx) =  4
 check tnoseh fnoseh  F    1.000000000000000     
     Message from routine setup:
     using ibrav=0 with symmetry is DISCOURAGED, use correct ibrav instead
 
     Subspace diagonalization in iterative solution of the eigenvalue problem:
     a serial algorithm will be used

 
     G-vector sticks info
     --------------------
     sticks:   dense  smooth     PW     G-vecs:    dense   smooth      PW
     Sum        2941    1483    439               143095    50637    8281
 
     Using Slab Decomposition
 


     bravais-lattice index     =            0
     lattice parameter (alat)  =      11.5806  a.u.
     unit-cell volume          =    1481.6185 (a.u.)^3
     number of atoms/cell      =           11
     number of atomic types    =            3
     number of electrons       =        90.00
     number of Kohn-Sham states=           54
     kinetic-energy cutoff     =      40.0000  Ry
     charge density cutoff     =     320.0000  Ry
     scf convergence threshold =      2.2E-09
     mixing beta               =       0.7000
     number of iterations used =            8  plain     mixing
     energy convergence thresh.=      1.1E-04
     force convergence thresh. =      1.0E-04
     press convergence thresh. =      5.0E-01
     Exchange-correlation= SLA  PW   PSX  PSC
                           (   1   4  10   8   0   0   0)
     nstep                     =          180


     GPU acceleration is ACTIVE.  1 visible GPUs per MPI rank
     GPU-aware MPI enabled


     GPU used by master process:

        Device Number: 0
        Device name: NVIDIA A100-SXM-64GB
        Compute capability : 80
        Ratio of single to double precision performance  : 2
        Memory Clock Rate (KHz): 1593000
        Memory Bus Width (bits): 4096
        Peak Memory Bandwidth (GB/s): ******
     Hubbard projectors: ortho-atomic
     Hubbard parameters of DFT+U (Dudarev formulation) in eV:
     U(Ti-3d) =  4.7000

     Internal variables: lda_plus_u = T, lda_plus_u_kind = 0

     celldm(1)=  11.580625  celldm(2)=   0.000000  celldm(3)=   0.000000
     celldm(4)=   0.000000  celldm(5)=   0.000000  celldm(6)=   0.000000

     crystal axes: (cart. coord. in units of alat)
               a(1) = (   1.000000   0.000560  -0.000114 )  
               a(2) = (  -0.499577   0.866201  -0.000184 )  
               a(3) = (   0.166837   0.288876   1.100887 )  

     reciprocal axes: (cart. coord. in units 2 pi/alat)
               b(1) = (  0.999643  0.576475 -0.302762 )  
               b(2) = ( -0.000681  1.154010 -0.302712 )  
               b(3) = (  0.000103  0.000252  0.908277 )  


     PseudoPot. # 1 for Na read from file:
     /leonardo_scratch/large/userexternal/nalghamd/mc_mace/GNoME-screening/2_space_group_DFT/pseudo_SSSP1.3_aiida/na_pbesol_v1.5.uspp.F.UPF
     MD5 check sum: 164b46c7694b4bc5b1217b5d1ae6f423
     Pseudo is Ultrasoft, Zval =  9.0
     Generated by new atomic code, or converted to UPF format
     Using radial grid of  819 points,  5 beta functions with: 
                l(1) =   0
                l(2) =   0
                l(3) =   1
                l(4) =   1
                l(5) =   2
     Q(r) pseudized with  8 coefficients,  rinner =    1.250   1.250   1.250
                                                       1.250   1.250

     PseudoPot. # 2 for S  read from file:
     /leonardo_scratch/large/userexternal/nalghamd/mc_mace/GNoME-screening/2_space_group_DFT/pseudo_SSSP1.3_aiida/s_pbesol_v1.4.uspp.F.UPF
     MD5 check sum: 0ccfa86ec6eb59065d10aaae963ef2a7
     Pseudo is Ultrasoft + core correction, Zval =  6.0
     Generated by new atomic code, or converted to UPF format
     Using radial grid of  907 points,  6 beta functions with: 
                l(1) =   0
                l(2) =   0
                l(3) =   1
                l(4) =   1
                l(5) =   2
                l(6) =   2
     Q(r) pseudized with  8 coefficients,  rinner =    1.300   1.300   1.300
                                                       1.300   1.300

     PseudoPot. # 3 for Ti read from file:
     /leonardo_scratch/large/userexternal/nalghamd/mc_mace/GNoME-screening/2_space_group_DFT/pseudo_SSSP1.3_aiida/ti_pbesol_v1.4.uspp.F.UPF
     MD5 check sum: 193cf2c0c3c6a4da613d69453fa7e3e9
     Pseudo is Ultrasoft + core correction, Zval = 12.0
     Generated by new atomic code, or converted to UPF format
     Using radial grid of  851 points,  6 beta functions with: 
                l(1) =   0
                l(2) =   0
                l(3) =   1
                l(4) =   1
                l(5) =   2
                l(6) =   2
     Q(r) pseudized with  6 coefficients,  rinner =    1.000   1.000   1.000
                                                       1.000   1.000

     atomic species   valence    mass     pseudopotential
     Na                9.00    22.98977     Na( 1.00)
     S                 6.00    32.06500     S ( 1.00)
     Ti               12.00    47.86700     Ti( 1.00)

     Starting magnetic structure 
     atomic species   magnetization
     Na              0.100
     S               0.100
     Ti              0.417

      2 Sym. Ops., with inversion, found


                                    s                        frac. trans.

      isym =  1     identity                                     

 cryst.   s( 1) = (     1          0          0      )
                  (     0          1          0      )
                  (     0          0          1      )

 cart.    s( 1) = (  1.0000000 -0.0000000 -0.0000000 )
                  (  0.0000000  1.0000000  0.0000000 )
                  (  0.0000000 -0.0000000  1.0000000 )


      isym =  2     inversion                                    

 cryst.   s( 2) = (    -1          0          0      )
                  (     0         -1          0      )
                  (     0          0         -1      )

 cart.    s( 2) = ( -1.0000000  0.0000000  0.0000000 )
                  ( -0.0000000 -1.0000000 -0.0000000 )
                  ( -0.0000000  0.0000000 -1.0000000 )


   Cartesian axes

     site n.     atom                  positions (alat units)
         1        Na     tau(   1) = (  -0.1667552   0.8666684   0.5502719  )
         2        Na     tau(   2) = (   0.8340150   0.2889679   0.5503174  )
         3        Ti     tau(   3) = (   0.0000000   0.0000000   0.0000000  )
         4        Ti     tau(   4) = (  -0.0052969   0.5809674  -0.0001476  )
         5        Ti     tau(   5) = (   0.5057196   0.2857930  -0.0001500  )
         6        S      tau(   6) = (   0.6658904   0.5776949   0.2290571  )
         7        S      tau(   7) = (   0.1669970   0.2891993   0.2265874  )
         8        S      tau(   8) = (   0.1673710   0.8654618   0.2290501  )
         9        S      tau(   9) = (   0.5002628   0.8664370   0.8740019  )
        10        S      tau(  10) = (   0.0013694   0.5779413   0.8715322  )
        11        S      tau(  11) = (   0.4998888   0.2901745   0.8715392  )

   Crystallographic axes

     site n.     atom                  positions (cryst. coord.)
         1        Na     tau(   1) = (  0.1663155  0.8336836  0.5000005  )
         2        Na     tau(   2) = (  0.8336845  0.1663164  0.4999995  )
         3        Ti     tau(   3) = (  0.0000000  0.0000000  0.0000000  )
         4        Ti     tau(   4) = (  0.3296630  0.6704907  0.0000119  )
         5        Ti     tau(   5) = (  0.6703370  0.3295093 -0.0000119  )
         6        S      tau(   6) = (  0.9293295  0.5968743  0.2082617  )
         7        S      tau(   7) = (  0.2650514  0.2650345  0.2058942  )
         8        S      tau(   8) = (  0.5968807  0.9293017  0.2082764  )
         9        S      tau(   9) = (  0.7349486  0.7349655  0.7941058  )
        10        S      tau(  10) = (  0.0706705  0.4031257  0.7917383  )
        11        S      tau(  11) = (  0.4031193  0.0706983  0.7917236  )

     number of k points=   284  Marzari-Vanderbilt smearing, width (Ry)=  0.0200
                       cart. coord. in units 2pi/alat
        k(    1) = (   0.0000000   0.0000000   0.0000000), wk =   0.0017637
        k(    2) = (   0.0000148   0.0000360   0.1297538), wk =   0.0035273
        k(    3) = (   0.0000295   0.0000721   0.2595076), wk =   0.0035273
        k(    4) = (   0.0000443   0.0001081   0.3892614), wk =   0.0035273
        k(    5) = (  -0.0000756   0.1282234  -0.0336347), wk =   0.0035273
        k(    6) = (  -0.0000609   0.1282594   0.0961191), wk =   0.0035273
        k(    7) = (  -0.0000461   0.1282954   0.2258729), wk =   0.0035273
        k(    8) = (  -0.0000313   0.1283315   0.3556267), wk =   0.0035273
        k(    9) = (  -0.0001199   0.1281153  -0.4228962), wk =   0.0035273
        k(   10) = (  -0.0001051   0.1281513  -0.2931423), wk =   0.0035273
        k(   11) = (  -0.0000904   0.1281874  -0.1633885), wk =   0.0035273
        k(   12) = (  -0.0001512   0.2564468  -0.0672694), wk =   0.0035273
        k(   13) = (  -0.0001365   0.2564828   0.0624844), wk =   0.0035273
        k(   14) = (  -0.0001217   0.2565188   0.1922382), wk =   0.0035273
        k(   15) = (  -0.0001070   0.2565548   0.3219920), wk =   0.0035273
        k(   16) = (  -0.0001955   0.2563387  -0.4565309), wk =   0.0035273
        k(   17) = (  -0.0001808   0.2563747  -0.3267771), wk =   0.0035273
        k(   18) = (  -0.0001660   0.2564107  -0.1970233), wk =   0.0035273
        k(   19) = (  -0.0002269   0.3846701  -0.1009042), wk =   0.0035273
        k(   20) = (  -0.0002121   0.3847062   0.0288496), wk =   0.0035273
        k(   21) = (  -0.0001973   0.3847422   0.1586035), wk =   0.0035273
        k(   22) = (  -0.0001826   0.3847782   0.2883573), wk =   0.0035273
        k(   23) = (  -0.0002711   0.3845621  -0.4901656), wk =   0.0035273
        k(   24) = (  -0.0002564   0.3845981  -0.3604118), wk =   0.0035273
        k(   25) = (  -0.0002416   0.3846341  -0.2306580), wk =   0.0035273
        k(   26) = (  -0.0003025   0.5128935  -0.1345389), wk =   0.0035273
        k(   27) = (  -0.0002877   0.5129295  -0.0047851), wk =   0.0035273
        k(   28) = (  -0.0002730   0.5129656   0.1249687), wk =   0.0035273
        k(   29) = (  -0.0002582   0.5130016   0.2547225), wk =   0.0035273
        k(   30) = (  -0.0003468   0.5127854  -0.5238003), wk =   0.0035273
        k(   31) = (  -0.0003320   0.5128215  -0.3940465), wk =   0.0035273
        k(   32) = (  -0.0003172   0.5128575  -0.2642927), wk =   0.0035273
        k(   33) = (   0.1110714   0.0640528  -0.0336403), wk =   0.0035273
        k(   34) = (   0.1110862   0.0640888   0.0961135), wk =   0.0035273
        k(   35) = (   0.1111010   0.0641248   0.2258674), wk =   0.0035273
        k(   36) = (   0.1111157   0.0641609   0.3556212), wk =   0.0035273
        k(   37) = (   0.1110272   0.0639447  -0.4229017), wk =   0.0035273
        k(   38) = (   0.1110419   0.0639807  -0.2931479), wk =   0.0035273
        k(   39) = (   0.1110567   0.0640168  -0.1633941), wk =   0.0035273
        k(   40) = (   0.1109958   0.1922762  -0.0672750), wk =   0.0035273
        k(   41) = (   0.1110106   0.1923122   0.0624788), wk =   0.0035273
        k(   42) = (   0.1110253   0.1923482   0.1922326), wk =   0.0035273
        k(   43) = (   0.1110401   0.1923842   0.3219864), wk =   0.0035273
        k(   44) = (   0.1109515   0.1921681  -0.4565364), wk =   0.0035273
        k(   45) = (   0.1109663   0.1922041  -0.3267826), wk =   0.0035273
        k(   46) = (   0.1109811   0.1922401  -0.1970288), wk =   0.0035273
        k(   47) = (   0.1109202   0.3204995  -0.1009097), wk =   0.0035273
        k(   48) = (   0.1109350   0.3205356   0.0288441), wk =   0.0035273
        k(   49) = (   0.1109497   0.3205716   0.1585979), wk =   0.0035273
        k(   50) = (   0.1109645   0.3206076   0.2883517), wk =   0.0035273
        k(   51) = (   0.1108759   0.3203915  -0.4901711), wk =   0.0035273
        k(   52) = (   0.1108907   0.3204275  -0.3604173), wk =   0.0035273
        k(   53) = (   0.1109054   0.3204635  -0.2306635), wk =   0.0035273
        k(   54) = (   0.1108446   0.4487229  -0.1345444), wk =   0.0035273
        k(   55) = (   0.1108593   0.4487589  -0.0047906), wk =   0.0035273
        k(   56) = (   0.1108741   0.4487950   0.1249632), wk =   0.0035273
        k(   57) = (   0.1108889   0.4488310   0.2547170), wk =   0.0035273
        k(   58) = (   0.1108003   0.4486148  -0.5238059), wk =   0.0035273
        k(   59) = (   0.1108151   0.4486509  -0.3940521), wk =   0.0035273
        k(   60) = (   0.1108298   0.4486869  -0.2642982), wk =   0.0035273
        k(   61) = (   0.1107690   0.5769463  -0.1681792), wk =   0.0035273
        k(   62) = (   0.1107837   0.5769823  -0.0384253), wk =   0.0035273
        k(   63) = (   0.1107985   0.5770183   0.0913285), wk =   0.0035273
        k(   64) = (   0.1108132   0.5770544   0.2210823), wk =   0.0035273
        k(   65) = (   0.1107247   0.5768382  -0.5574406), wk =   0.0035273
        k(   66) = (   0.1107394   0.5768742  -0.4276868), wk =   0.0035273
        k(   67) = (   0.1107542   0.5769103  -0.2979330), wk =   0.0035273
        k(   68) = (   0.1113739  -0.4488407   0.1008986), wk =   0.0035273
        k(   69) = (   0.1113887  -0.4488047   0.2306524), wk =   0.0035273
        k(   70) = (   0.1114034  -0.4487687   0.3604062), wk =   0.0035273
        k(   71) = (   0.1114182  -0.4487326   0.4901600), wk =   0.0035273
        k(   72) = (   0.1113296  -0.4489488  -0.2883628), wk =   0.0035273
        k(   73) = (   0.1113444  -0.4489128  -0.1586090), wk =   0.0035273
        k(   74) = (   0.1113592  -0.4488767  -0.0288552), wk =   0.0035273
        k(   75) = (   0.1112983  -0.3206173   0.0672639), wk =   0.0035273
        k(   76) = (   0.1113131  -0.3205813   0.1970177), wk =   0.0035273
        k(   77) = (   0.1113278  -0.3205453   0.3267715), wk =   0.0035273
        k(   78) = (   0.1113426  -0.3205093   0.4565253), wk =   0.0035273
        k(   79) = (   0.1112540  -0.3207254  -0.3219975), wk =   0.0035273
        k(   80) = (   0.1112688  -0.3206894  -0.1922437), wk =   0.0035273
        k(   81) = (   0.1112835  -0.3206534  -0.0624899), wk =   0.0035273
        k(   82) = (   0.1112227  -0.1923940   0.0336292), wk =   0.0035273
        k(   83) = (   0.1112374  -0.1923579   0.1633830), wk =   0.0035273
        k(   84) = (   0.1112522  -0.1923219   0.2931368), wk =   0.0035273
        k(   85) = (   0.1112670  -0.1922859   0.4228906), wk =   0.0035273
        k(   86) = (   0.1111784  -0.1925020  -0.3556323), wk =   0.0035273
        k(   87) = (   0.1111932  -0.1924660  -0.2258784), wk =   0.0035273
        k(   88) = (   0.1112079  -0.1924300  -0.0961246), wk =   0.0035273
        k(   89) = (   0.1111471  -0.0641706  -0.0000055), wk =   0.0035273
        k(   90) = (   0.1111618  -0.0641346   0.1297483), wk =   0.0035273
        k(   91) = (   0.1111766  -0.0640985   0.2595021), wk =   0.0035273
        k(   92) = (   0.1111913  -0.0640625   0.3892559), wk =   0.0035273
        k(   93) = (   0.1111028  -0.0642787  -0.3892670), wk =   0.0035273
        k(   94) = (   0.1111175  -0.0642426  -0.2595132), wk =   0.0035273
        k(   95) = (   0.1111323  -0.0642066  -0.1297594), wk =   0.0035273
        k(   96) = (   0.2221429   0.1281056  -0.0672805), wk =   0.0035273
        k(   97) = (   0.2221576   0.1281416   0.0624733), wk =   0.0035273
        k(   98) = (   0.2221724   0.1281776   0.1922271), wk =   0.0035273
        k(   99) = (   0.2221872   0.1282137   0.3219809), wk =   0.0035273
        k(  100) = (   0.2220986   0.1279975  -0.4565420), wk =   0.0035273
        k(  101) = (   0.2221133   0.1280335  -0.3267882), wk =   0.0035273
        k(  102) = (   0.2221281   0.1280696  -0.1970343), wk =   0.0035273
        k(  103) = (   0.2220673   0.2563290  -0.1009153), wk =   0.0035273
        k(  104) = (   0.2220820   0.2563650   0.0288385), wk =   0.0035273
        k(  105) = (   0.2220968   0.2564010   0.1585924), wk =   0.0035273
        k(  106) = (   0.2221115   0.2564370   0.2883462), wk =   0.0035273
        k(  107) = (   0.2220230   0.2562209  -0.4901767), wk =   0.0035273
        k(  108) = (   0.2220377   0.2562569  -0.3604229), wk =   0.0035273
        k(  109) = (   0.2220525   0.2562929  -0.2306691), wk =   0.0035273
        k(  110) = (   0.2219916   0.3845523  -0.1345500), wk =   0.0035273
        k(  111) = (   0.2220064   0.3845884  -0.0047962), wk =   0.0035273
        k(  112) = (   0.2220212   0.3846244   0.1249576), wk =   0.0035273
        k(  113) = (   0.2220359   0.3846604   0.2547114), wk =   0.0035273
        k(  114) = (   0.2219473   0.3844443  -0.5238114), wk =   0.0035273
        k(  115) = (   0.2219621   0.3844803  -0.3940576), wk =   0.0035273
        k(  116) = (   0.2219769   0.3845163  -0.2643038), wk =   0.0035273
        k(  117) = (   0.2219160   0.5127757  -0.1681847), wk =   0.0035273
        k(  118) = (   0.2219308   0.5128117  -0.0384309), wk =   0.0035273
        k(  119) = (   0.2219455   0.5128478   0.0913229), wk =   0.0035273
        k(  120) = (   0.2219603   0.5128838   0.2210767), wk =   0.0035273
        k(  121) = (   0.2218717   0.5126676  -0.5574461), wk =   0.0035273
        k(  122) = (   0.2218865   0.5127037  -0.4276923), wk =   0.0035273
        k(  123) = (   0.2219013   0.5127397  -0.2979385), wk =   0.0035273
        k(  124) = (   0.2218404   0.6409991  -0.2018194), wk =   0.0035273
        k(  125) = (   0.2218552   0.6410351  -0.0720656), wk =   0.0035273
        k(  126) = (   0.2218699   0.6410711   0.0576882), wk =   0.0035273
        k(  127) = (   0.2218847   0.6411072   0.1874420), wk =   0.0035273
        k(  128) = (   0.2217961   0.6408910  -0.5910809), wk =   0.0035273
        k(  129) = (   0.2218109   0.6409270  -0.4613270), wk =   0.0035273
        k(  130) = (   0.2218256   0.6409631  -0.3315732), wk =   0.0035273
        k(  131) = (   0.2224453  -0.3847879   0.0672583), wk =   0.0035273
        k(  132) = (   0.2224601  -0.3847519   0.1970122), wk =   0.0035273
        k(  133) = (   0.2224749  -0.3847159   0.3267660), wk =   0.0035273
        k(  134) = (   0.2224896  -0.3846798   0.4565198), wk =   0.0035273
        k(  135) = (   0.2224011  -0.3848960  -0.3220031), wk =   0.0035273
        k(  136) = (   0.2224158  -0.3848600  -0.1922493), wk =   0.0035273
        k(  137) = (   0.2224306  -0.3848239  -0.0624955), wk =   0.0035273
        k(  138) = (   0.2223697  -0.2565645   0.0336236), wk =   0.0035273
        k(  139) = (   0.2223845  -0.2565285   0.1633774), wk =   0.0035273
        k(  140) = (   0.2223993  -0.2564925   0.2931312), wk =   0.0035273
        k(  141) = (   0.2224140  -0.2564565   0.4228851), wk =   0.0035273
        k(  142) = (   0.2223254  -0.2566726  -0.3556378), wk =   0.0035273
        k(  143) = (   0.2223402  -0.2566366  -0.2258840), wk =   0.0035273
        k(  144) = (   0.2223550  -0.2566006  -0.0961302), wk =   0.0035273
        k(  145) = (   0.2222941  -0.1283412  -0.0000111), wk =   0.0035273
        k(  146) = (   0.2223089  -0.1283051   0.1297427), wk =   0.0035273
        k(  147) = (   0.2223236  -0.1282691   0.2594965), wk =   0.0035273
        k(  148) = (   0.2223384  -0.1282331   0.3892503), wk =   0.0035273
        k(  149) = (   0.2222498  -0.1284492  -0.3892725), wk =   0.0035273
        k(  150) = (   0.2222646  -0.1284132  -0.2595187), wk =   0.0035273
        k(  151) = (   0.2222793  -0.1283772  -0.1297649), wk =   0.0035273
        k(  152) = (   0.2222185  -0.0001178  -0.0336458), wk =   0.0035273
        k(  153) = (   0.2222333  -0.0000818   0.0961080), wk =   0.0035273
        k(  154) = (   0.2222480  -0.0000457   0.2258618), wk =   0.0035273
        k(  155) = (   0.2222628  -0.0000097   0.3556156), wk =   0.0035273
        k(  156) = (   0.2221742  -0.0002259  -0.4229072), wk =   0.0035273
        k(  157) = (   0.2221890  -0.0001898  -0.2931534), wk =   0.0035273
        k(  158) = (   0.2222037  -0.0001538  -0.1633996), wk =   0.0035273
        k(  159) = (   0.3332143   0.1921584  -0.1009208), wk =   0.0035273
        k(  160) = (   0.3332291   0.1921944   0.0288330), wk =   0.0035273
        k(  161) = (   0.3332438   0.1922304   0.1585868), wk =   0.0035273
        k(  162) = (   0.3332586   0.1922665   0.2883406), wk =   0.0035273
        k(  163) = (   0.3331700   0.1920503  -0.4901822), wk =   0.0035273
        k(  164) = (   0.3331848   0.1920863  -0.3604284), wk =   0.0035273
        k(  165) = (   0.3331995   0.1921224  -0.2306746), wk =   0.0035273
        k(  166) = (   0.3331387   0.3203818  -0.1345555), wk =   0.0035273
        k(  167) = (   0.3331535   0.3204178  -0.0048017), wk =   0.0035273
        k(  168) = (   0.3331682   0.3204538   0.1249521), wk =   0.0035273
        k(  169) = (   0.3331830   0.3204898   0.2547059), wk =   0.0035273
        k(  170) = (   0.3330944   0.3202737  -0.5238170), wk =   0.0035273
        k(  171) = (   0.3331092   0.3203097  -0.3940632), wk =   0.0035273
        k(  172) = (   0.3331239   0.3203457  -0.2643093), wk =   0.0035273
        k(  173) = (   0.3330631   0.4486051  -0.1681903), wk =   0.0035273
        k(  174) = (   0.3330778   0.4486412  -0.0384364), wk =   0.0035273
        k(  175) = (   0.3330926   0.4486772   0.0913174), wk =   0.0035273
        k(  176) = (   0.3331074   0.4487132   0.2210712), wk =   0.0035273
        k(  177) = (   0.3330188   0.4484971  -0.5574517), wk =   0.0035273
        k(  178) = (   0.3330335   0.4485331  -0.4276979), wk =   0.0035273
        k(  179) = (   0.3330483   0.4485691  -0.2979441), wk =   0.0035273
        k(  180) = (   0.3329875   0.5768285  -0.2018250), wk =   0.0035273
        k(  181) = (   0.3330022   0.5768645  -0.0720712), wk =   0.0035273
        k(  182) = (   0.3330170   0.5769006   0.0576826), wk =   0.0035273
        k(  183) = (   0.3330317   0.5769366   0.1874365), wk =   0.0035273
        k(  184) = (   0.3329432   0.5767204  -0.5910864), wk =   0.0035273
        k(  185) = (   0.3329579   0.5767565  -0.4613326), wk =   0.0035273
        k(  186) = (   0.3329727   0.5767925  -0.3315788), wk =   0.0035273
        k(  187) = (   0.3329118   0.7050519  -0.2354597), wk =   0.0035273
        k(  188) = (   0.3329266   0.7050879  -0.1057059), wk =   0.0035273
        k(  189) = (   0.3329414   0.7051239   0.0240479), wk =   0.0035273
        k(  190) = (   0.3329561   0.7051600   0.1538017), wk =   0.0035273
        k(  191) = (   0.3328675   0.7049438  -0.6247211), wk =   0.0035273
        k(  192) = (   0.3328823   0.7049798  -0.4949673), wk =   0.0035273
        k(  193) = (   0.3328971   0.7050159  -0.3652135), wk =   0.0035273
        k(  194) = (   0.3335168  -0.3207351   0.0336181), wk =   0.0035273
        k(  195) = (   0.3335315  -0.3206991   0.1633719), wk =   0.0035273
        k(  196) = (   0.3335463  -0.3206631   0.2931257), wk =   0.0035273
        k(  197) = (   0.3335611  -0.3206270   0.4228795), wk =   0.0035273
        k(  198) = (   0.3334725  -0.3208432  -0.3556434), wk =   0.0035273
        k(  199) = (   0.3334873  -0.3208072  -0.2258895), wk =   0.0035273
        k(  200) = (   0.3335020  -0.3207711  -0.0961357), wk =   0.0035273
        k(  201) = (   0.3334412  -0.1925117  -0.0000166), wk =   0.0035273
        k(  202) = (   0.3334559  -0.1924757   0.1297372), wk =   0.0035273
        k(  203) = (   0.3334707  -0.1924397   0.2594910), wk =   0.0035273
        k(  204) = (   0.3334855  -0.1924037   0.3892448), wk =   0.0035273
        k(  205) = (   0.3333969  -0.1926198  -0.3892781), wk =   0.0035273
        k(  206) = (   0.3334116  -0.1925838  -0.2595243), wk =   0.0035273
        k(  207) = (   0.3334264  -0.1925478  -0.1297705), wk =   0.0035273
        k(  208) = (   0.3333655  -0.0642884  -0.0336514), wk =   0.0035273
        k(  209) = (   0.3333803  -0.0642523   0.0961024), wk =   0.0035273
        k(  210) = (   0.3333951  -0.0642163   0.2258563), wk =   0.0035273
        k(  211) = (   0.3334098  -0.0641803   0.3556101), wk =   0.0035273
        k(  212) = (   0.3333213  -0.0643964  -0.4229128), wk =   0.0035273
        k(  213) = (   0.3333360  -0.0643604  -0.2931590), wk =   0.0035273
        k(  214) = (   0.3333508  -0.0643244  -0.1634052), wk =   0.0035273
        k(  215) = (   0.3332899   0.0639350  -0.0672861), wk =   0.0035273
        k(  216) = (   0.3333047   0.0639710   0.0624677), wk =   0.0035273
        k(  217) = (   0.3333195   0.0640071   0.1922215), wk =   0.0035273
        k(  218) = (   0.3333342   0.0640431   0.3219753), wk =   0.0035273
        k(  219) = (   0.3332456   0.0638269  -0.4565475), wk =   0.0035273
        k(  220) = (   0.3332604   0.0638630  -0.3267937), wk =   0.0035273
        k(  221) = (   0.3332752   0.0638990  -0.1970399), wk =   0.0035273
        k(  222) = (   0.4442857   0.2562112  -0.1345611), wk =   0.0035273
        k(  223) = (   0.4443005   0.2562472  -0.0048073), wk =   0.0035273
        k(  224) = (   0.4443153   0.2562832   0.1249465), wk =   0.0035273
        k(  225) = (   0.4443300   0.2563193   0.2547004), wk =   0.0035273
        k(  226) = (   0.4442415   0.2561031  -0.5238225), wk =   0.0035273
        k(  227) = (   0.4442562   0.2561391  -0.3940687), wk =   0.0035273
        k(  228) = (   0.4442710   0.2561752  -0.2643149), wk =   0.0035273
        k(  229) = (   0.4442101   0.3844346  -0.1681958), wk =   0.0035273
        k(  230) = (   0.4442249   0.3844706  -0.0384420), wk =   0.0035273
        k(  231) = (   0.4442396   0.3845066   0.0913118), wk =   0.0035273
        k(  232) = (   0.4442544   0.3845426   0.2210656), wk =   0.0035273
        k(  233) = (   0.4441658   0.3843265  -0.5574572), wk =   0.0035273
        k(  234) = (   0.4441806   0.3843625  -0.4277034), wk =   0.0035273
        k(  235) = (   0.4441954   0.3843985  -0.2979496), wk =   0.0035273
        k(  236) = (   0.4441345   0.5126579  -0.2018305), wk =   0.0035273
        k(  237) = (   0.4441493   0.5126940  -0.0720767), wk =   0.0035273
        k(  238) = (   0.4441640   0.5127300   0.0576771), wk =   0.0035273
        k(  239) = (   0.4441788   0.5127660   0.1874309), wk =   0.0035273
        k(  240) = (   0.4440902   0.5125499  -0.5910920), wk =   0.0035273
        k(  241) = (   0.4441050   0.5125859  -0.4613381), wk =   0.0035273
        k(  242) = (   0.4441197   0.5126219  -0.3315843), wk =   0.0035273
        k(  243) = (   0.4440589   0.6408813  -0.2354652), wk =   0.0035273
        k(  244) = (   0.4440736   0.6409173  -0.1057114), wk =   0.0035273
        k(  245) = (   0.4440884   0.6409534   0.0240424), wk =   0.0035273
        k(  246) = (   0.4441032   0.6409894   0.1537962), wk =   0.0035273
        k(  247) = (   0.4440146   0.6407732  -0.6247267), wk =   0.0035273
        k(  248) = (   0.4440294   0.6408093  -0.4949729), wk =   0.0035273
        k(  249) = (   0.4440441   0.6408453  -0.3652191), wk =   0.0035273
        k(  250) = (   0.4439833   0.7691047  -0.2691000), wk =   0.0035273
        k(  251) = (   0.4439980   0.7691407  -0.1393462), wk =   0.0035273
        k(  252) = (   0.4440128   0.7691767  -0.0095923), wk =   0.0035273
        k(  253) = (   0.4440276   0.7692128   0.1201615), wk =   0.0035273
        k(  254) = (   0.4439390   0.7689966  -0.6583614), wk =   0.0035273
        k(  255) = (   0.4439537   0.7690326  -0.5286076), wk =   0.0035273
        k(  256) = (   0.4439685   0.7690687  -0.3988538), wk =   0.0035273
        k(  257) = (   0.4445882  -0.2566823  -0.0000222), wk =   0.0035273
        k(  258) = (   0.4446030  -0.2566463   0.1297316), wk =   0.0035273
        k(  259) = (   0.4446177  -0.2566103   0.2594854), wk =   0.0035273
        k(  260) = (   0.4446325  -0.2565743   0.3892392), wk =   0.0035273
        k(  261) = (   0.4445439  -0.2567904  -0.3892836), wk =   0.0035273
        k(  262) = (   0.4445587  -0.2567544  -0.2595298), wk =   0.0035273
        k(  263) = (   0.4445735  -0.2567184  -0.1297760), wk =   0.0035273
        k(  264) = (   0.4445126  -0.1284590  -0.0336569), wk =   0.0035273
        k(  265) = (   0.4445274  -0.1284229   0.0960969), wk =   0.0035273
        k(  266) = (   0.4445421  -0.1283869   0.2258507), wk =   0.0035273
        k(  267) = (   0.4445569  -0.1283509   0.3556045), wk =   0.0035273
        k(  268) = (   0.4444683  -0.1285670  -0.4229183), wk =   0.0035273
        k(  269) = (   0.4444831  -0.1285310  -0.2931645), wk =   0.0035273
        k(  270) = (   0.4444978  -0.1284950  -0.1634107), wk =   0.0035273
        k(  271) = (   0.4444370  -0.0002356  -0.0672916), wk =   0.0035273
        k(  272) = (   0.4444517  -0.0001996   0.0624622), wk =   0.0035273
        k(  273) = (   0.4444665  -0.0001635   0.1922160), wk =   0.0035273
        k(  274) = (   0.4444813  -0.0001275   0.3219698), wk =   0.0035273
        k(  275) = (   0.4443927  -0.0003437  -0.4565531), wk =   0.0035273
        k(  276) = (   0.4444075  -0.0003076  -0.3267993), wk =   0.0035273
        k(  277) = (   0.4444222  -0.0002716  -0.1970454), wk =   0.0035273
        k(  278) = (   0.4443614   0.1279878  -0.1009264), wk =   0.0035273
        k(  279) = (   0.4443761   0.1280238   0.0288275), wk =   0.0035273
        k(  280) = (   0.4443909   0.1280599   0.1585813), wk =   0.0035273
        k(  281) = (   0.4444056   0.1280959   0.2883351), wk =   0.0035273
        k(  282) = (   0.4443171   0.1278797  -0.4901878), wk =   0.0035273
        k(  283) = (   0.4443318   0.1279157  -0.3604340), wk =   0.0035273
        k(  284) = (   0.4443466   0.1279518  -0.2306802), wk =   0.0035273

                       cryst. coord.
        k(    1) = (   0.0000000   0.0000000   0.0000000), wk =   0.0017637
        k(    2) = (   0.0000000  -0.0000000   0.1428571), wk =   0.0035273
        k(    3) = (   0.0000000  -0.0000000   0.2857143), wk =   0.0035273
        k(    4) = (  -0.0000000  -0.0000000   0.4285714), wk =   0.0035273
        k(    5) = (   0.0000000   0.1111111   0.0000000), wk =   0.0035273
        k(    6) = (   0.0000000   0.1111111   0.1428571), wk =   0.0035273
        k(    7) = (   0.0000000   0.1111111   0.2857143), wk =   0.0035273
        k(    8) = (  -0.0000000   0.1111111   0.4285714), wk =   0.0035273
        k(    9) = (  -0.0000000   0.1111111  -0.4285714), wk =   0.0035273
        k(   10) = (  -0.0000000   0.1111111  -0.2857143), wk =   0.0035273
        k(   11) = (  -0.0000000   0.1111111  -0.1428571), wk =   0.0035273
        k(   12) = (   0.0000000   0.2222222   0.0000000), wk =   0.0035273
        k(   13) = (  -0.0000000   0.2222222   0.1428571), wk =   0.0035273
        k(   14) = (   0.0000000   0.2222222   0.2857143), wk =   0.0035273
        k(   15) = (   0.0000000   0.2222222   0.4285714), wk =   0.0035273
        k(   16) = (   0.0000000   0.2222222  -0.4285714), wk =   0.0035273
        k(   17) = (  -0.0000000   0.2222222  -0.2857143), wk =   0.0035273
        k(   18) = (   0.0000000   0.2222222  -0.1428571), wk =   0.0035273
        k(   19) = (  -0.0000000   0.3333333   0.0000000), wk =   0.0035273
        k(   20) = (   0.0000000   0.3333333   0.1428571), wk =   0.0035273
        k(   21) = (   0.0000000   0.3333333   0.2857143), wk =   0.0035273
        k(   22) = (   0.0000000   0.3333333   0.4285714), wk =   0.0035273
        k(   23) = (  -0.0000000   0.3333333  -0.4285714), wk =   0.0035273
        k(   24) = (  -0.0000000   0.3333333  -0.2857143), wk =   0.0035273
        k(   25) = (   0.0000000   0.3333333  -0.1428571), wk =   0.0035273
        k(   26) = (   0.0000000   0.4444444   0.0000000), wk =   0.0035273
        k(   27) = (  -0.0000000   0.4444444   0.1428571), wk =   0.0035273
        k(   28) = (  -0.0000000   0.4444444   0.2857143), wk =   0.0035273
        k(   29) = (   0.0000000   0.4444444   0.4285714), wk =   0.0035273
        k(   30) = (  -0.0000000   0.4444444  -0.4285714), wk =   0.0035273
        k(   31) = (  -0.0000000   0.4444444  -0.2857143), wk =   0.0035273
        k(   32) = (   0.0000000   0.4444444  -0.1428571), wk =   0.0035273
        k(   33) = (   0.1111111  -0.0000000  -0.0000000), wk =   0.0035273
        k(   34) = (   0.1111111  -0.0000000   0.1428571), wk =   0.0035273
        k(   35) = (   0.1111111  -0.0000000   0.2857143), wk =   0.0035273
        k(   36) = (   0.1111111  -0.0000000   0.4285714), wk =   0.0035273
        k(   37) = (   0.1111111  -0.0000000  -0.4285714), wk =   0.0035273
        k(   38) = (   0.1111111  -0.0000000  -0.2857143), wk =   0.0035273
        k(   39) = (   0.1111111  -0.0000000  -0.1428571), wk =   0.0035273
        k(   40) = (   0.1111111   0.1111111  -0.0000000), wk =   0.0035273
        k(   41) = (   0.1111111   0.1111111   0.1428571), wk =   0.0035273
        k(   42) = (   0.1111111   0.1111111   0.2857143), wk =   0.0035273
        k(   43) = (   0.1111111   0.1111111   0.4285714), wk =   0.0035273
        k(   44) = (   0.1111111   0.1111111  -0.4285714), wk =   0.0035273
        k(   45) = (   0.1111111   0.1111111  -0.2857143), wk =   0.0035273
        k(   46) = (   0.1111111   0.1111111  -0.1428571), wk =   0.0035273
        k(   47) = (   0.1111111   0.2222222   0.0000000), wk =   0.0035273
        k(   48) = (   0.1111111   0.2222222   0.1428571), wk =   0.0035273
        k(   49) = (   0.1111111   0.2222222   0.2857143), wk =   0.0035273
        k(   50) = (   0.1111111   0.2222222   0.4285714), wk =   0.0035273
        k(   51) = (   0.1111111   0.2222222  -0.4285714), wk =   0.0035273
        k(   52) = (   0.1111111   0.2222222  -0.2857143), wk =   0.0035273
        k(   53) = (   0.1111111   0.2222222  -0.1428571), wk =   0.0035273
        k(   54) = (   0.1111111   0.3333333  -0.0000000), wk =   0.0035273
        k(   55) = (   0.1111111   0.3333333   0.1428571), wk =   0.0035273
        k(   56) = (   0.1111111   0.3333333   0.2857143), wk =   0.0035273
        k(   57) = (   0.1111111   0.3333333   0.4285714), wk =   0.0035273
        k(   58) = (   0.1111111   0.3333333  -0.4285714), wk =   0.0035273
        k(   59) = (   0.1111111   0.3333333  -0.2857143), wk =   0.0035273
        k(   60) = (   0.1111111   0.3333333  -0.1428571), wk =   0.0035273
        k(   61) = (   0.1111111   0.4444444   0.0000000), wk =   0.0035273
        k(   62) = (   0.1111111   0.4444444   0.1428571), wk =   0.0035273
        k(   63) = (   0.1111111   0.4444444   0.2857143), wk =   0.0035273
        k(   64) = (   0.1111111   0.4444444   0.4285714), wk =   0.0035273
        k(   65) = (   0.1111111   0.4444444  -0.4285714), wk =   0.0035273
        k(   66) = (   0.1111111   0.4444444  -0.2857143), wk =   0.0035273
        k(   67) = (   0.1111111   0.4444444  -0.1428571), wk =   0.0035273
        k(   68) = (   0.1111111  -0.4444444  -0.0000000), wk =   0.0035273
        k(   69) = (   0.1111111  -0.4444444   0.1428571), wk =   0.0035273
        k(   70) = (   0.1111111  -0.4444444   0.2857143), wk =   0.0035273
        k(   71) = (   0.1111111  -0.4444444   0.4285714), wk =   0.0035273
        k(   72) = (   0.1111111  -0.4444444  -0.4285714), wk =   0.0035273
        k(   73) = (   0.1111111  -0.4444444  -0.2857143), wk =   0.0035273
        k(   74) = (   0.1111111  -0.4444444  -0.1428571), wk =   0.0035273
        k(   75) = (   0.1111111  -0.3333333  -0.0000000), wk =   0.0035273
        k(   76) = (   0.1111111  -0.3333333   0.1428571), wk =   0.0035273
        k(   77) = (   0.1111111  -0.3333333   0.2857143), wk =   0.0035273
        k(   78) = (   0.1111111  -0.3333333   0.4285714), wk =   0.0035273
        k(   79) = (   0.1111111  -0.3333333  -0.4285714), wk =   0.0035273
        k(   80) = (   0.1111111  -0.3333333  -0.2857143), wk =   0.0035273
        k(   81) = (   0.1111111  -0.3333333  -0.1428571), wk =   0.0035273
        k(   82) = (   0.1111111  -0.2222222  -0.0000000), wk =   0.0035273
        k(   83) = (   0.1111111  -0.2222222   0.1428571), wk =   0.0035273
        k(   84) = (   0.1111111  -0.2222222   0.2857143), wk =   0.0035273
        k(   85) = (   0.1111111  -0.2222222   0.4285714), wk =   0.0035273
        k(   86) = (   0.1111111  -0.2222222  -0.4285714), wk =   0.0035273
        k(   87) = (   0.1111111  -0.2222222  -0.2857143), wk =   0.0035273
        k(   88) = (   0.1111111  -0.2222222  -0.1428571), wk =   0.0035273
        k(   89) = (   0.1111111  -0.1111111  -0.0000000), wk =   0.0035273
        k(   90) = (   0.1111111  -0.1111111   0.1428571), wk =   0.0035273
        k(   91) = (   0.1111111  -0.1111111   0.2857143), wk =   0.0035273
        k(   92) = (   0.1111111  -0.1111111   0.4285714), wk =   0.0035273
        k(   93) = (   0.1111111  -0.1111111  -0.4285714), wk =   0.0035273
        k(   94) = (   0.1111111  -0.1111111  -0.2857143), wk =   0.0035273
        k(   95) = (   0.1111111  -0.1111111  -0.1428571), wk =   0.0035273
        k(   96) = (   0.2222222  -0.0000000  -0.0000000), wk =   0.0035273
        k(   97) = (   0.2222222  -0.0000000   0.1428571), wk =   0.0035273
        k(   98) = (   0.2222222  -0.0000000   0.2857143), wk =   0.0035273
        k(   99) = (   0.2222222  -0.0000000   0.4285714), wk =   0.0035273
        k(  100) = (   0.2222222  -0.0000000  -0.4285714), wk =   0.0035273
        k(  101) = (   0.2222222  -0.0000000  -0.2857143), wk =   0.0035273
        k(  102) = (   0.2222222  -0.0000000  -0.1428571), wk =   0.0035273
        k(  103) = (   0.2222222   0.1111111   0.0000000), wk =   0.0035273
        k(  104) = (   0.2222222   0.1111111   0.1428571), wk =   0.0035273
        k(  105) = (   0.2222222   0.1111111   0.2857143), wk =   0.0035273
        k(  106) = (   0.2222222   0.1111111   0.4285714), wk =   0.0035273
        k(  107) = (   0.2222222   0.1111111  -0.4285714), wk =   0.0035273
        k(  108) = (   0.2222222   0.1111111  -0.2857143), wk =   0.0035273
        k(  109) = (   0.2222222   0.1111111  -0.1428571), wk =   0.0035273
        k(  110) = (   0.2222222   0.2222222  -0.0000000), wk =   0.0035273
        k(  111) = (   0.2222222   0.2222222   0.1428571), wk =   0.0035273
        k(  112) = (   0.2222222   0.2222222   0.2857143), wk =   0.0035273
        k(  113) = (   0.2222222   0.2222222   0.4285714), wk =   0.0035273
        k(  114) = (   0.2222222   0.2222222  -0.4285714), wk =   0.0035273
        k(  115) = (   0.2222222   0.2222222  -0.2857143), wk =   0.0035273
        k(  116) = (   0.2222222   0.2222222  -0.1428571), wk =   0.0035273
        k(  117) = (   0.2222222   0.3333333   0.0000000), wk =   0.0035273
        k(  118) = (   0.2222222   0.3333333   0.1428571), wk =   0.0035273
        k(  119) = (   0.2222222   0.3333333   0.2857143), wk =   0.0035273
        k(  120) = (   0.2222222   0.3333333   0.4285714), wk =   0.0035273
        k(  121) = (   0.2222222   0.3333333  -0.4285714), wk =   0.0035273
        k(  122) = (   0.2222222   0.3333333  -0.2857143), wk =   0.0035273
        k(  123) = (   0.2222222   0.3333333  -0.1428571), wk =   0.0035273
        k(  124) = (   0.2222222   0.4444444   0.0000000), wk =   0.0035273
        k(  125) = (   0.2222222   0.4444444   0.1428571), wk =   0.0035273
        k(  126) = (   0.2222222   0.4444444   0.2857143), wk =   0.0035273
        k(  127) = (   0.2222222   0.4444444   0.4285714), wk =   0.0035273
        k(  128) = (   0.2222222   0.4444444  -0.4285714), wk =   0.0035273
        k(  129) = (   0.2222222   0.4444444  -0.2857143), wk =   0.0035273
        k(  130) = (   0.2222222   0.4444444  -0.1428571), wk =   0.0035273
        k(  131) = (   0.2222222  -0.4444444  -0.0000000), wk =   0.0035273
        k(  132) = (   0.2222222  -0.4444444   0.1428571), wk =   0.0035273
        k(  133) = (   0.2222222  -0.4444444   0.2857143), wk =   0.0035273
        k(  134) = (   0.2222222  -0.4444444   0.4285714), wk =   0.0035273
        k(  135) = (   0.2222222  -0.4444444  -0.4285714), wk =   0.0035273
        k(  136) = (   0.2222222  -0.4444444  -0.2857143), wk =   0.0035273
        k(  137) = (   0.2222222  -0.4444444  -0.1428571), wk =   0.0035273
        k(  138) = (   0.2222222  -0.3333333  -0.0000000), wk =   0.0035273
        k(  139) = (   0.2222222  -0.3333333   0.1428571), wk =   0.0035273
        k(  140) = (   0.2222222  -0.3333333   0.2857143), wk =   0.0035273
        k(  141) = (   0.2222222  -0.3333333   0.4285714), wk =   0.0035273
        k(  142) = (   0.2222222  -0.3333333  -0.4285714), wk =   0.0035273
        k(  143) = (   0.2222222  -0.3333333  -0.2857143), wk =   0.0035273
        k(  144) = (   0.2222222  -0.3333333  -0.1428571), wk =   0.0035273
        k(  145) = (   0.2222222  -0.2222222  -0.0000000), wk =   0.0035273
        k(  146) = (   0.2222222  -0.2222222   0.1428571), wk =   0.0035273
        k(  147) = (   0.2222222  -0.2222222   0.2857143), wk =   0.0035273
        k(  148) = (   0.2222222  -0.2222222   0.4285714), wk =   0.0035273
        k(  149) = (   0.2222222  -0.2222222  -0.4285714), wk =   0.0035273
        k(  150) = (   0.2222222  -0.2222222  -0.2857143), wk =   0.0035273
        k(  151) = (   0.2222222  -0.2222222  -0.1428571), wk =   0.0035273
        k(  152) = (   0.2222222  -0.1111111  -0.0000000), wk =   0.0035273
        k(  153) = (   0.2222222  -0.1111111   0.1428571), wk =   0.0035273
        k(  154) = (   0.2222222  -0.1111111   0.2857143), wk =   0.0035273
        k(  155) = (   0.2222222  -0.1111111   0.4285714), wk =   0.0035273
        k(  156) = (   0.2222222  -0.1111111  -0.4285714), wk =   0.0035273
        k(  157) = (   0.2222222  -0.1111111  -0.2857143), wk =   0.0035273
        k(  158) = (   0.2222222  -0.1111111  -0.1428571), wk =   0.0035273
        k(  159) = (   0.3333333  -0.0000000  -0.0000000), wk =   0.0035273
        k(  160) = (   0.3333333  -0.0000000   0.1428571), wk =   0.0035273
        k(  161) = (   0.3333333  -0.0000000   0.2857143), wk =   0.0035273
        k(  162) = (   0.3333333  -0.0000000   0.4285714), wk =   0.0035273
        k(  163) = (   0.3333333  -0.0000000  -0.4285714), wk =   0.0035273
        k(  164) = (   0.3333333  -0.0000000  -0.2857143), wk =   0.0035273
        k(  165) = (   0.3333333  -0.0000000  -0.1428571), wk =   0.0035273
        k(  166) = (   0.3333333   0.1111111  -0.0000000), wk =   0.0035273
        k(  167) = (   0.3333333   0.1111111   0.1428571), wk =   0.0035273
        k(  168) = (   0.3333333   0.1111111   0.2857143), wk =   0.0035273
        k(  169) = (   0.3333333   0.1111111   0.4285714), wk =   0.0035273
        k(  170) = (   0.3333333   0.1111111  -0.4285714), wk =   0.0035273
        k(  171) = (   0.3333333   0.1111111  -0.2857143), wk =   0.0035273
        k(  172) = (   0.3333333   0.1111111  -0.1428571), wk =   0.0035273
        k(  173) = (   0.3333333   0.2222222  -0.0000000), wk =   0.0035273
        k(  174) = (   0.3333333   0.2222222   0.1428571), wk =   0.0035273
        k(  175) = (   0.3333333   0.2222222   0.2857143), wk =   0.0035273
        k(  176) = (   0.3333333   0.2222222   0.4285714), wk =   0.0035273
        k(  177) = (   0.3333333   0.2222222  -0.4285714), wk =   0.0035273
        k(  178) = (   0.3333333   0.2222222  -0.2857143), wk =   0.0035273
        k(  179) = (   0.3333333   0.2222222  -0.1428571), wk =   0.0035273
        k(  180) = (   0.3333333   0.3333333   0.0000000), wk =   0.0035273
        k(  181) = (   0.3333333   0.3333333   0.1428571), wk =   0.0035273
        k(  182) = (   0.3333333   0.3333333   0.2857143), wk =   0.0035273
        k(  183) = (   0.3333333   0.3333333   0.4285714), wk =   0.0035273
        k(  184) = (   0.3333333   0.3333333  -0.4285714), wk =   0.0035273
        k(  185) = (   0.3333333   0.3333333  -0.2857143), wk =   0.0035273
        k(  186) = (   0.3333333   0.3333333  -0.1428571), wk =   0.0035273
        k(  187) = (   0.3333333   0.4444444   0.0000000), wk =   0.0035273
        k(  188) = (   0.3333333   0.4444444   0.1428571), wk =   0.0035273
        k(  189) = (   0.3333333   0.4444444   0.2857143), wk =   0.0035273
        k(  190) = (   0.3333333   0.4444444   0.4285714), wk =   0.0035273
        k(  191) = (   0.3333333   0.4444444  -0.4285714), wk =   0.0035273
        k(  192) = (   0.3333333   0.4444444  -0.2857143), wk =   0.0035273
        k(  193) = (   0.3333333   0.4444444  -0.1428571), wk =   0.0035273
        k(  194) = (   0.3333333  -0.4444444  -0.0000000), wk =   0.0035273
        k(  195) = (   0.3333333  -0.4444444   0.1428571), wk =   0.0035273
        k(  196) = (   0.3333333  -0.4444444   0.2857143), wk =   0.0035273
        k(  197) = (   0.3333333  -0.4444444   0.4285714), wk =   0.0035273
        k(  198) = (   0.3333333  -0.4444444  -0.4285714), wk =   0.0035273
        k(  199) = (   0.3333333  -0.4444444  -0.2857143), wk =   0.0035273
        k(  200) = (   0.3333333  -0.4444444  -0.1428571), wk =   0.0035273
        k(  201) = (   0.3333333  -0.3333333  -0.0000000), wk =   0.0035273
        k(  202) = (   0.3333333  -0.3333333   0.1428571), wk =   0.0035273
        k(  203) = (   0.3333333  -0.3333333   0.2857143), wk =   0.0035273
        k(  204) = (   0.3333333  -0.3333333   0.4285714), wk =   0.0035273
        k(  205) = (   0.3333333  -0.3333333  -0.4285714), wk =   0.0035273
        k(  206) = (   0.3333333  -0.3333333  -0.2857143), wk =   0.0035273
        k(  207) = (   0.3333333  -0.3333333  -0.1428571), wk =   0.0035273
        k(  208) = (   0.3333333  -0.2222222  -0.0000000), wk =   0.0035273
        k(  209) = (   0.3333333  -0.2222222   0.1428571), wk =   0.0035273
        k(  210) = (   0.3333333  -0.2222222   0.2857143), wk =   0.0035273
        k(  211) = (   0.3333333  -0.2222222   0.4285714), wk =   0.0035273
        k(  212) = (   0.3333333  -0.2222222  -0.4285714), wk =   0.0035273
        k(  213) = (   0.3333333  -0.2222222  -0.2857143), wk =   0.0035273
        k(  214) = (   0.3333333  -0.2222222  -0.1428571), wk =   0.0035273
        k(  215) = (   0.3333333  -0.1111111  -0.0000000), wk =   0.0035273
        k(  216) = (   0.3333333  -0.1111111   0.1428571), wk =   0.0035273
        k(  217) = (   0.3333333  -0.1111111   0.2857143), wk =   0.0035273
        k(  218) = (   0.3333333  -0.1111111   0.4285714), wk =   0.0035273
        k(  219) = (   0.3333333  -0.1111111  -0.4285714), wk =   0.0035273
        k(  220) = (   0.3333333  -0.1111111  -0.2857143), wk =   0.0035273
        k(  221) = (   0.3333333  -0.1111111  -0.1428571), wk =   0.0035273
        k(  222) = (   0.4444444  -0.0000000  -0.0000000), wk =   0.0035273
        k(  223) = (   0.4444444  -0.0000000   0.1428571), wk =   0.0035273
        k(  224) = (   0.4444444  -0.0000000   0.2857143), wk =   0.0035273
        k(  225) = (   0.4444444  -0.0000000   0.4285714), wk =   0.0035273
        k(  226) = (   0.4444444  -0.0000000  -0.4285714), wk =   0.0035273
        k(  227) = (   0.4444444  -0.0000000  -0.2857143), wk =   0.0035273
        k(  228) = (   0.4444444  -0.0000000  -0.1428571), wk =   0.0035273
        k(  229) = (   0.4444444   0.1111111  -0.0000000), wk =   0.0035273
        k(  230) = (   0.4444444   0.1111111   0.1428571), wk =   0.0035273
        k(  231) = (   0.4444444   0.1111111   0.2857143), wk =   0.0035273
        k(  232) = (   0.4444444   0.1111111   0.4285714), wk =   0.0035273
        k(  233) = (   0.4444444   0.1111111  -0.4285714), wk =   0.0035273
        k(  234) = (   0.4444444   0.1111111  -0.2857143), wk =   0.0035273
        k(  235) = (   0.4444444   0.1111111  -0.1428571), wk =   0.0035273
        k(  236) = (   0.4444444   0.2222222   0.0000000), wk =   0.0035273
        k(  237) = (   0.4444444   0.2222222   0.1428571), wk =   0.0035273
        k(  238) = (   0.4444444   0.2222222   0.2857143), wk =   0.0035273
        k(  239) = (   0.4444444   0.2222222   0.4285714), wk =   0.0035273
        k(  240) = (   0.4444444   0.2222222  -0.4285714), wk =   0.0035273
        k(  241) = (   0.4444444   0.2222222  -0.2857143), wk =   0.0035273
        k(  242) = (   0.4444444   0.2222222  -0.1428571), wk =   0.0035273
        k(  243) = (   0.4444444   0.3333333   0.0000000), wk =   0.0035273
        k(  244) = (   0.4444444   0.3333333   0.1428571), wk =   0.0035273
        k(  245) = (   0.4444444   0.3333333   0.2857143), wk =   0.0035273
        k(  246) = (   0.4444444   0.3333333   0.4285714), wk =   0.0035273
        k(  247) = (   0.4444444   0.3333333  -0.4285714), wk =   0.0035273
        k(  248) = (   0.4444444   0.3333333  -0.2857143), wk =   0.0035273
        k(  249) = (   0.4444444   0.3333333  -0.1428571), wk =   0.0035273
        k(  250) = (   0.4444444   0.4444444  -0.0000000), wk =   0.0035273
        k(  251) = (   0.4444444   0.4444444   0.1428571), wk =   0.0035273
        k(  252) = (   0.4444444   0.4444444   0.2857143), wk =   0.0035273
        k(  253) = (   0.4444444   0.4444444   0.4285714), wk =   0.0035273
        k(  254) = (   0.4444444   0.4444444  -0.4285714), wk =   0.0035273
        k(  255) = (   0.4444444   0.4444444  -0.2857143), wk =   0.0035273
        k(  256) = (   0.4444444   0.4444444  -0.1428571), wk =   0.0035273
        k(  257) = (   0.4444444  -0.4444444  -0.0000000), wk =   0.0035273
        k(  258) = (   0.4444444  -0.4444444   0.1428571), wk =   0.0035273
        k(  259) = (   0.4444444  -0.4444444   0.2857143), wk =   0.0035273
        k(  260) = (   0.4444444  -0.4444444   0.4285714), wk =   0.0035273
        k(  261) = (   0.4444444  -0.4444444  -0.4285714), wk =   0.0035273
        k(  262) = (   0.4444444  -0.4444444  -0.2857143), wk =   0.0035273
        k(  263) = (   0.4444444  -0.4444444  -0.1428571), wk =   0.0035273
        k(  264) = (   0.4444444  -0.3333333  -0.0000000), wk =   0.0035273
        k(  265) = (   0.4444444  -0.3333333   0.1428571), wk =   0.0035273
        k(  266) = (   0.4444444  -0.3333333   0.2857143), wk =   0.0035273
        k(  267) = (   0.4444444  -0.3333333   0.4285714), wk =   0.0035273
        k(  268) = (   0.4444444  -0.3333333  -0.4285714), wk =   0.0035273
        k(  269) = (   0.4444444  -0.3333333  -0.2857143), wk =   0.0035273
        k(  270) = (   0.4444444  -0.3333333  -0.1428571), wk =   0.0035273
        k(  271) = (   0.4444444  -0.2222222  -0.0000000), wk =   0.0035273
        k(  272) = (   0.4444444  -0.2222222   0.1428571), wk =   0.0035273
        k(  273) = (   0.4444444  -0.2222222   0.2857143), wk =   0.0035273
        k(  274) = (   0.4444444  -0.2222222   0.4285714), wk =   0.0035273
        k(  275) = (   0.4444444  -0.2222222  -0.4285714), wk =   0.0035273
        k(  276) = (   0.4444444  -0.2222222  -0.2857143), wk =   0.0035273
        k(  277) = (   0.4444444  -0.2222222  -0.1428571), wk =   0.0035273
        k(  278) = (   0.4444444  -0.1111111  -0.0000000), wk =   0.0035273
        k(  279) = (   0.4444444  -0.1111111   0.1428571), wk =   0.0035273
        k(  280) = (   0.4444444  -0.1111111   0.2857143), wk =   0.0035273
        k(  281) = (   0.4444444  -0.1111111   0.4285714), wk =   0.0035273
        k(  282) = (   0.4444444  -0.1111111  -0.4285714), wk =   0.0035273
        k(  283) = (   0.4444444  -0.1111111  -0.2857143), wk =   0.0035273
        k(  284) = (   0.4444444  -0.1111111  -0.1428571), wk =   0.0035273

     Dense  grid:   143095 G-vectors     FFT dimensions: (  72,  72,  75)

     Smooth grid:    50637 G-vectors     FFT dimensions: (  48,  48,  54)

     Dynamical RAM for                 wfc:       5.22 MB

     Dynamical RAM for     wfc (w. buffer):    2967.77 MB

     Dynamical RAM for             U proj.:       1.45 MB

     Dynamical RAM for  U proj. (w. buff.):     824.38 MB

     Dynamical RAM for           str. fact:       6.55 MB

     Dynamical RAM for           local pot:       0.00 MB

     Dynamical RAM for          nlocal pot:      18.16 MB

     Dynamical RAM for                qrad:       8.62 MB

     Dynamical RAM for          rho,v,vnew:      30.90 MB

     Dynamical RAM for               rhoin:      10.30 MB

     Dynamical RAM for            rho*nmix:      69.87 MB

     Dynamical RAM for           G-vectors:       8.57 MB

     Dynamical RAM for          h,s,v(r/c):       0.13 MB

     Dynamical RAM for          <psi|beta>:       0.15 MB

     Dynamical RAM for      wfcinit/wfcrot:      10.50 MB

     Dynamical RAM for           addusdens:     421.41 MB

     Dynamical RAM for          addusforce:     443.29 MB

     Dynamical RAM for         addusstress:     442.15 MB

     Estimated static dynamical RAM per process >       3.81 GB

     Estimated max dynamical RAM per process >       4.31 GB

     Atomic positions and unit cell read from directory:
     ./out/aiida.save/
 
     New effective cutoffs (rho, wfc):  320.00   40.00

     Check: negative core charge=   -0.000007
     Generating pointlists ...
     new r_m :   0.1912 (alat units)  2.2141 (a.u.) for type    1
     new r_m :   0.1654 (alat units)  1.9150 (a.u.) for type    2
     new r_m :   0.1654 (alat units)  1.9150 (a.u.) for type    3

     The initial density is read from file :
     ./out/aiida.save/charge-density


     negative rho (up, down):  4.840E-04 2.559E-03

     HUBBARD ENERGY =    0.7637  (Ry)

     STARTING HUBBARD OCCUPATIONS:

     =================== HUBBARD OCCUPATIONS ===================
     ------------------------ ATOM    3 ------------------------
     Tr[ns(  3)] (up, down, total) =   1.52108  0.65599  2.17707
     Atomic magnetic moment for atom   3 =   0.86509
     SPIN  1
     eigenvalues:
       0.096  0.228  0.254  0.469  0.475
     eigenvectors (columns):
      -0.795  0.005  0.378  0.474 -0.031
       0.158 -0.320 -0.197  0.372 -0.834
       0.276  0.180 -0.356  0.772  0.411
      -0.258 -0.811 -0.406 -0.079  0.324
       0.448 -0.455  0.726  0.189  0.173
     occupation matrix ns (before diag.):
       0.202  0.064  0.111 -0.043  0.074
       0.064  0.431 -0.019 -0.066 -0.032
       0.111 -0.019  0.407  0.031  0.030
      -0.043 -0.066  0.031  0.251  0.018
       0.074 -0.032  0.030  0.018  0.231
     SPIN  2
     eigenvalues:
       0.053  0.057  0.061  0.232  0.253
     eigenvectors (columns):
       0.994 -0.001  0.107  0.000 -0.007
       0.029 -0.529 -0.302  0.686 -0.397
       0.052  0.305 -0.523 -0.396 -0.689
      -0.044  0.686  0.395  0.529 -0.303
       0.078  0.396 -0.684  0.305  0.525
     occupation matrix ns (before diag.):
       0.053  0.000  0.001  0.001 -0.001
       0.000  0.171  0.007  0.087 -0.004
       0.001  0.007  0.179  0.004 -0.091
       0.001  0.087  0.004  0.125 -0.004
      -0.001 -0.004 -0.091 -0.004  0.129
     ------------------------ ATOM    4 ------------------------
     Tr[ns(  4)] (up, down, total) =   1.50907  0.66242  2.17149
     Atomic magnetic moment for atom   4 =   0.84666
     SPIN  1
     eigenvalues:
       0.100  0.221  0.232  0.471  0.485
     eigenvectors (columns):
      -0.985 -0.121 -0.013  0.123 -0.020
      -0.051 -0.146 -0.235 -0.437  0.854
      -0.068 -0.248  0.139 -0.848 -0.442
       0.090 -0.480 -0.829  0.123 -0.241
      -0.122  0.820 -0.487 -0.244 -0.126
     occupation matrix ns (before diag.):
       0.107 -0.024 -0.032  0.016 -0.021
      -0.024  0.462 -0.008 -0.065 -0.001
      -0.032 -0.008  0.452  0.001  0.065
       0.016 -0.065  0.001  0.247  0.006
      -0.021 -0.001  0.065  0.006  0.241
     SPIN  2
     eigenvalues:
       0.055  0.059  0.059  0.240  0.250
     eigenvectors (columns):
       0.999 -0.033 -0.023 -0.002 -0.000
      -0.002  0.301 -0.531  0.389 -0.689
       0.026  0.523  0.306  0.695  0.386
       0.003 -0.398  0.685  0.295 -0.535
       0.031  0.690  0.394 -0.527 -0.300
     occupation matrix ns (before diag.):
       0.055 -0.000 -0.000 -0.000  0.000
      -0.000  0.177 -0.002  0.091  0.002
      -0.000 -0.002  0.175 -0.002 -0.088
      -0.000  0.091 -0.002  0.129  0.003
       0.000  0.002 -0.088  0.003  0.126
     ------------------------ ATOM    5 ------------------------
     Tr[ns(  5)] (up, down, total) =   1.50907  0.66242  2.17149
     Atomic magnetic moment for atom   5 =   0.84666
     SPIN  1
     eigenvalues:
       0.100  0.221  0.232  0.471  0.485
     eigenvectors (columns):
      -0.985 -0.121 -0.013  0.123 -0.020
      -0.051 -0.146 -0.235 -0.437  0.854
      -0.068 -0.248  0.139 -0.848 -0.442
       0.090 -0.480 -0.829  0.123 -0.241
      -0.122  0.820 -0.487 -0.244 -0.126
     occupation matrix ns (before diag.):
       0.107 -0.024 -0.032  0.016 -0.021
      -0.024  0.462 -0.008 -0.065 -0.001
      -0.032 -0.008  0.452  0.001  0.065
       0.016 -0.065  0.001  0.247  0.006
      -0.021 -0.001  0.065  0.006  0.241
     SPIN  2
     eigenvalues:
       0.055  0.059  0.059  0.240  0.250
     eigenvectors (columns):
       0.999 -0.033 -0.023 -0.002 -0.000
      -0.002  0.301 -0.531  0.389 -0.689
       0.026  0.523  0.306  0.695  0.386
       0.003 -0.398  0.685  0.295 -0.535
       0.031  0.690  0.394 -0.527 -0.300
     occupation matrix ns (before diag.):
       0.055 -0.000 -0.000 -0.000  0.000
      -0.000  0.177 -0.002  0.091  0.002
      -0.000 -0.002  0.175 -0.002 -0.088
      -0.000  0.091 -0.002  0.129  0.003
       0.000  0.002 -0.088  0.003  0.126

     Number of occupied Hubbard levels =    6.5201

     Atomic wfc used for Hubbard projectors are orthogonalized

     Starting wfcs from file

     total cpu time spent up to now is        5.6 secs

     Self-consistent Calculation
[tb_dev] Currently allocated     8.19E-01 Mbytes, locked:    0 /   3
[tb_pin] Currently allocated     0.00E+00 Mbytes, locked:    0 /   0

     iteration #  1     ecut=    40.00 Ry     beta= 0.70
     CG style diagonalization

---- Real-time Memory Report at c_bands before calling an iterative solver
          1411 MiB given to the printing process from OS
             0 MiB allocation reported by mallinfo(arena+hblkhd)
        438976 MiB available memory on the node where the printing process lives
     GPU memory used/free/total (MiB): 2006 / 62938 / 64944
------------------
     ethr =  1.00E-05,  avg # of iterations =  2.0

     =================== HUBBARD OCCUPATIONS ===================
     ------------------------ ATOM    3 ------------------------
     Tr[ns(  3)] (up, down, total) =   3.03254  2.74649  5.77903
     Atomic magnetic moment for atom   3 =   0.28606
     SPIN  1
     eigenvalues:
       0.332  0.356  0.747  0.797  0.800
     eigenvectors (columns):
       0.171 -0.001  0.761  0.008  0.625
      -0.370 -0.612 -0.158 -0.611  0.301
      -0.642  0.355 -0.276  0.355  0.509
      -0.326 -0.612  0.279  0.611 -0.259
       0.561 -0.353 -0.491  0.357  0.439
     occupation matrix ns (before diag.):
       0.755  0.036  0.063  0.015 -0.025
       0.036  0.567 -0.017 -0.219 -0.002
       0.063 -0.017  0.547  0.002  0.217
       0.015 -0.219  0.002  0.579 -0.003
      -0.025 -0.002  0.217 -0.003  0.584
     SPIN  2
     eigenvalues:
       0.365  0.369  0.625  0.677  0.710
     eigenvectors (columns):
       0.012  0.215  0.832 -0.000 -0.512
       0.888  0.438 -0.059 -0.067  0.108
      -0.453  0.865 -0.101  0.039  0.188
       0.070  0.056 -0.269  0.865 -0.413
       0.033 -0.106  0.471  0.495  0.722
     occupation matrix ns (before diag.):
       0.636 -0.031 -0.054  0.015 -0.026
      -0.031  0.372  0.010 -0.029  0.009
      -0.054  0.010  0.384 -0.009  0.040
       0.015 -0.029 -0.009  0.676 -0.002
      -0.026  0.009  0.040 -0.002  0.679
     ------------------------ ATOM    4 ------------------------
     Tr[ns(  4)] (up, down, total) =   3.07079  2.83853  5.90931
     Atomic magnetic moment for atom   4 =   0.23226
     SPIN  1
     eigenvalues:
       0.354  0.369  0.753  0.797  0.798
     eigenvectors (columns):
       0.006 -0.048 -0.984 -0.038  0.168
       0.576 -0.347 -0.056 -0.482 -0.558
      -0.347 -0.579 -0.076  0.560 -0.474
       0.635 -0.379  0.091  0.438  0.503
       0.381  0.631 -0.121  0.510 -0.428
     occupation matrix ns (before diag.):
       0.753 -0.011 -0.014 -0.005  0.007
      -0.011  0.599  0.002 -0.218 -0.004
      -0.014  0.002  0.600  0.004  0.215
      -0.005 -0.218  0.004  0.557 -0.004
       0.007 -0.004  0.215 -0.004  0.562
     SPIN  2
     eigenvalues:
       0.381  0.395  0.680  0.691  0.692
     eigenvectors (columns):
      -0.003  0.083 -0.694  0.206 -0.685
       0.852 -0.517  0.007 -0.032 -0.083
      -0.520 -0.846  0.015  0.071 -0.093
       0.057 -0.052 -0.404  0.680  0.607
       0.037  0.089  0.596  0.699 -0.383
     occupation matrix ns (before diag.):
       0.684  0.014  0.020 -0.002  0.003
       0.014  0.387  0.008 -0.023  0.004
       0.020  0.008  0.396 -0.004  0.028
      -0.002 -0.023 -0.004  0.688  0.003
       0.003  0.004  0.028  0.003  0.684
     ------------------------ ATOM    5 ------------------------
     Tr[ns(  5)] (up, down, total) =   3.07079  2.83853  5.90931
     Atomic magnetic moment for atom   5 =   0.23226
     SPIN  1
     eigenvalues:
       0.354  0.369  0.753  0.797  0.798
     eigenvectors (columns):
       0.006 -0.048 -0.984 -0.038  0.168
       0.576 -0.347 -0.056 -0.482 -0.558
      -0.347 -0.579 -0.076  0.560 -0.474
       0.635 -0.379  0.091  0.438  0.503
       0.381  0.631 -0.121  0.510 -0.428
     occupation matrix ns (before diag.):
       0.753 -0.011 -0.014 -0.005  0.007
      -0.011  0.599  0.002 -0.218 -0.004
      -0.014  0.002  0.600  0.004  0.215
      -0.005 -0.218  0.004  0.557 -0.004
       0.007 -0.004  0.215 -0.004  0.562
     SPIN  2
     eigenvalues:
       0.381  0.395  0.680  0.691  0.692
     eigenvectors (columns):
      -0.003  0.083 -0.694  0.206 -0.685
       0.852 -0.517  0.007 -0.032 -0.083
      -0.520 -0.846  0.015  0.071 -0.093
       0.057 -0.052 -0.404  0.680  0.607
       0.037  0.089  0.596  0.699 -0.383
     occupation matrix ns (before diag.):
       0.684  0.014  0.020 -0.002  0.003
       0.014  0.387  0.008 -0.023  0.004
       0.020  0.008  0.396 -0.004  0.028
      -0.002 -0.023 -0.004  0.688  0.003
       0.003  0.004  0.028  0.003  0.684

     Number of occupied Hubbard levels =   17.5977

     HUBBARD ENERGY =    1.1922  (Ry)

     total cpu time spent up to now is       99.9 secs

     total energy              =    -605.15569831 Ry
     estimated scf accuracy    <      10.05400268 Ry

     total magnetization       =    -0.00 Bohr mag/cell
     absolute magnetization    =     2.51 Bohr mag/cell
[tb_dev] Currently allocated     0.00E+00 Mbytes, locked:    0 /   0
[tb_pin] Currently allocated     0.00E+00 Mbytes, locked:    0 /   0

     iteration #  2     ecut=    40.00 Ry     beta= 0.70
     CG style diagonalization

---- Real-time Memory Report at c_bands before calling an iterative solver
          4426 MiB given to the printing process from OS
             0 MiB allocation reported by mallinfo(arena+hblkhd)
        432703 MiB available memory on the node where the printing process lives
     GPU memory used/free/total (MiB): 2074 / 62870 / 64944
------------------
     c_bands:  1 eigenvalues not converged
     ethr =  1.00E-02,  avg # of iterations =  6.0

     =================== HUBBARD OCCUPATIONS ===================
     ------------------------ ATOM    3 ------------------------
     Tr[ns(  3)] (up, down, total) =   0.09281  0.09677  0.18958
     Atomic magnetic moment for atom   3 =  -0.00397
     SPIN  1
     eigenvalues:
       0.008  0.008  0.011  0.031  0.035
     eigenvectors (columns):
      -0.020 -0.000 -1.000  0.000 -0.011
       0.212  0.409  0.001 -0.769 -0.443
       0.421 -0.205  0.000  0.446 -0.763
      -0.395 -0.795  0.010 -0.395 -0.236
       0.788 -0.399 -0.020 -0.230  0.407
     occupation matrix ns (before diag.):
       0.011  0.000  0.000  0.000 -0.000
       0.000  0.027  0.001  0.010 -0.001
       0.000  0.001  0.028  0.001 -0.011
       0.000  0.010  0.001  0.013 -0.001
      -0.000 -0.001 -0.011 -0.001  0.013
     SPIN  2
     eigenvalues:
       0.008  0.009  0.012  0.032  0.036
     eigenvectors (columns):
       0.246  0.001  0.968 -0.000  0.051
       0.280 -0.506 -0.049 -0.702 -0.412
       0.484  0.292 -0.086  0.407 -0.713
      -0.396  0.703  0.115 -0.505 -0.283
       0.686  0.406 -0.201 -0.293  0.489
     occupation matrix ns (before diag.):
       0.012 -0.001 -0.001  0.000 -0.000
      -0.001  0.025  0.001  0.012 -0.001
      -0.001  0.001  0.026  0.001 -0.013
       0.000  0.012  0.001  0.017 -0.000
      -0.000 -0.001 -0.013 -0.000  0.017
     ------------------------ ATOM    4 ------------------------
     Tr[ns(  4)] (up, down, total) =   0.08376  0.08724  0.17100
     Atomic magnetic moment for atom   4 =  -0.00348
     SPIN  1
     eigenvalues:
       0.007  0.007  0.010  0.029  0.031
     eigenvectors (columns):
       0.004  0.015 -1.000  0.006  0.001
       0.407 -0.225 -0.000  0.439 -0.769
      -0.228 -0.404 -0.002  0.771  0.438
      -0.772  0.433  0.004  0.229 -0.405
      -0.431 -0.774 -0.016 -0.402 -0.231
     occupation matrix ns (before diag.):
       0.010  0.000  0.000  0.000 -0.000
       0.000  0.025 -0.001  0.010  0.000
       0.000 -0.001  0.025 -0.000 -0.009
       0.000  0.010 -0.000  0.012  0.000
      -0.000  0.000 -0.009  0.000  0.012
     SPIN  2
     eigenvalues:
       0.007  0.008  0.011  0.030  0.031
     eigenvectors (columns):
      -0.059 -0.001 -0.998  0.026 -0.001
       0.295  0.497 -0.007  0.405 -0.709
       0.493 -0.297 -0.010  0.711  0.404
      -0.419 -0.700  0.033  0.284 -0.503
       0.700 -0.419 -0.054 -0.499 -0.287
     occupation matrix ns (before diag.):
       0.011  0.000  0.000  0.000 -0.000
       0.000  0.023 -0.000  0.011  0.000
       0.000 -0.000  0.023 -0.000 -0.011
       0.000  0.011 -0.000  0.015  0.000
      -0.000  0.000 -0.011  0.000  0.015
     ------------------------ ATOM    5 ------------------------
     Tr[ns(  5)] (up, down, total) =   0.08376  0.08724  0.17100
     Atomic magnetic moment for atom   5 =  -0.00348
     SPIN  1
     eigenvalues:
       0.007  0.007  0.010  0.029  0.031
     eigenvectors (columns):
       0.004  0.015 -1.000  0.006  0.001
       0.407 -0.225 -0.000  0.439 -0.769
      -0.228 -0.404 -0.002  0.771  0.438
      -0.772  0.433  0.004  0.229 -0.405
      -0.431 -0.774 -0.016 -0.402 -0.231
     occupation matrix ns (before diag.):
       0.010  0.000  0.000  0.000 -0.000
       0.000  0.025 -0.001  0.010  0.000
       0.000 -0.001  0.025 -0.000 -0.009
       0.000  0.010 -0.000  0.012  0.000
      -0.000  0.000 -0.009  0.000  0.012
     SPIN  2
     eigenvalues:
       0.007  0.008  0.011  0.030  0.031
     eigenvectors (columns):
      -0.059 -0.001 -0.998  0.026 -0.001
       0.295  0.497 -0.007  0.405 -0.709
       0.493 -0.297 -0.010  0.711  0.404
      -0.419 -0.700  0.033  0.284 -0.503
       0.700 -0.419 -0.054 -0.499 -0.287
     occupation matrix ns (before diag.):
       0.011  0.000  0.000  0.000 -0.000
       0.000  0.023 -0.000  0.011  0.000
       0.000 -0.000  0.023 -0.000 -0.011
       0.000  0.011 -0.000  0.015  0.000
      -0.000  0.000 -0.011  0.000  0.015

     Number of occupied Hubbard levels =    0.5316

     negative rho (up, down):  0.000E+00 2.863E-05

     HUBBARD ENERGY =    1.1562  (Ry)

     total cpu time spent up to now is      328.3 secs

     total energy              =    -681.55915991 Ry
     estimated scf accuracy    <      46.18256076 Ry

     total magnetization       =    -0.56 Bohr mag/cell
     absolute magnetization    =     0.69 Bohr mag/cell
[tb_dev] Currently allocated     0.00E+00 Mbytes, locked:    0 /   0
[tb_pin] Currently allocated     0.00E+00 Mbytes, locked:    0 /   0

     iteration #  3     ecut=    40.00 Ry     beta= 0.70
     CG style diagonalization

---- Real-time Memory Report at c_bands before calling an iterative solver
          4434 MiB given to the printing process from OS
             0 MiB allocation reported by mallinfo(arena+hblkhd)
        432482 MiB available memory on the node where the printing process lives
     GPU memory used/free/total (MiB): 2074 / 62870 / 64944
------------------
     ethr =  1.00E-02,  avg # of iterations =  3.8

     =================== HUBBARD OCCUPATIONS ===================
     ------------------------ ATOM    3 ------------------------
     Tr[ns(  3)] (up, down, total) =   0.36044  0.32184  0.68228
     Atomic magnetic moment for atom   3 =   0.03861
     SPIN  1
     eigenvalues:
       0.042  0.044  0.068  0.101  0.106
     eigenvectors (columns):
       0.799  0.601  0.029  0.002 -0.017
       0.145 -0.228  0.543 -0.671 -0.427
       0.289 -0.391 -0.305  0.403 -0.713
      -0.231  0.334 -0.683 -0.535 -0.287
       0.452 -0.568 -0.380 -0.320  0.476
     occupation matrix ns (before diag.):
       0.043  0.000  0.000  0.000 -0.002
       0.000  0.088 -0.000  0.019 -0.006
       0.000 -0.000  0.087  0.006 -0.026
       0.000  0.019  0.006  0.076  0.008
      -0.002 -0.006 -0.026  0.008  0.067
     SPIN  2
     eigenvalues:
       0.032  0.042  0.042  0.103  0.104
     eigenvectors (columns):
      -0.581 -0.800  0.141  0.000  0.052
      -0.275  0.061 -0.652  0.588 -0.388
      -0.472  0.355  0.311 -0.348 -0.658
       0.303 -0.132  0.622  0.629 -0.328
      -0.521  0.462  0.268  0.371  0.553
     occupation matrix ns (before diag.):
       0.039 -0.003 -0.005  0.001 -0.001
      -0.003  0.071  0.002  0.031 -0.001
      -0.005  0.002  0.074  0.001 -0.033
       0.001  0.031  0.001  0.072  0.005
      -0.001 -0.001 -0.033  0.005  0.066
     ------------------------ ATOM    4 ------------------------
     Tr[ns(  4)] (up, down, total) =   0.33267  0.30300  0.63567
     Atomic magnetic moment for atom   4 =   0.02967
     SPIN  1
     eigenvalues:
       0.040  0.045  0.051  0.097  0.099
     eigenvectors (columns):
       0.986 -0.012  0.168  0.002  0.002
      -0.046 -0.496  0.238  0.373 -0.746
      -0.085  0.230  0.501  0.737  0.381
       0.068  0.756 -0.344  0.259 -0.488
      -0.120  0.360  0.738 -0.501 -0.246
     occupation matrix ns (before diag.):
       0.041  0.000  0.001 -0.001  0.001
       0.000  0.083 -0.000  0.024  0.001
       0.001 -0.000  0.083 -0.001 -0.022
      -0.001  0.024 -0.001  0.062 -0.002
       0.001  0.001 -0.022 -0.002  0.065
     SPIN  2
     eigenvalues:
       0.034  0.035  0.039  0.097  0.097
     eigenvectors (columns):
       0.013  0.899 -0.436 -0.000 -0.020
      -0.585 -0.154 -0.317  0.625 -0.379
       0.331 -0.285 -0.551 -0.398 -0.589
       0.644  0.137  0.318  0.565 -0.383
       0.366 -0.259 -0.552  0.364  0.602
     occupation matrix ns (before diag.):
       0.036  0.001  0.002 -0.000  0.000
       0.001  0.068 -0.001  0.031  0.001
       0.002 -0.001  0.068 -0.001 -0.030
      -0.000  0.031 -0.001  0.064 -0.003
       0.000  0.001 -0.030 -0.003  0.067
     ------------------------ ATOM    5 ------------------------
     Tr[ns(  5)] (up, down, total) =   0.33267  0.30300  0.63567
     Atomic magnetic moment for atom   5 =   0.02967
     SPIN  1
     eigenvalues:
       0.040  0.045  0.051  0.097  0.099
     eigenvectors (columns):
       0.986 -0.012  0.168  0.002  0.002
      -0.046 -0.496  0.238  0.373 -0.746
      -0.085  0.230  0.501  0.737  0.381
       0.068  0.756 -0.344  0.259 -0.488
      -0.120  0.360  0.738 -0.501 -0.246
     occupation matrix ns (before diag.):
       0.041  0.000  0.001 -0.001  0.001
       0.000  0.083 -0.000  0.024  0.001
       0.001 -0.000  0.083 -0.001 -0.022
      -0.001  0.024 -0.001  0.062 -0.002
       0.001  0.001 -0.022 -0.002  0.065
     SPIN  2
     eigenvalues:
       0.034  0.035  0.039  0.097  0.097
     eigenvectors (columns):
       0.013  0.899 -0.436 -0.000 -0.020
      -0.585 -0.154 -0.317  0.625 -0.379
       0.331 -0.285 -0.551 -0.398 -0.589
       0.644  0.137  0.318  0.565 -0.383
       0.366 -0.259 -0.552  0.364  0.602
     occupation matrix ns (before diag.):
       0.036  0.001  0.002 -0.000  0.000
       0.001  0.068 -0.001  0.031  0.001
       0.002 -0.001  0.068 -0.001 -0.030
      -0.000  0.031 -0.001  0.064 -0.003
       0.000  0.001 -0.030 -0.003  0.067

     Number of occupied Hubbard levels =    1.9536

     negative rho (up, down):  1.848E-05 1.726E-04

     HUBBARD ENERGY =    1.0909  (Ry)

     total cpu time spent up to now is      458.9 secs

     total energy              =    -689.32905832 Ry
     estimated scf accuracy    <       7.49156707 Ry

     total magnetization       =    -0.20 Bohr mag/cell
     absolute magnetization    =     0.51 Bohr mag/cell
[tb_dev] Currently allocated     0.00E+00 Mbytes, locked:    0 /   0
[tb_pin] Currently allocated     0.00E+00 Mbytes, locked:    0 /   0

     iteration #  4     ecut=    40.00 Ry     beta= 0.70
     CG style diagonalization

---- Real-time Memory Report at c_bands before calling an iterative solver
          4440 MiB given to the printing process from OS
             0 MiB allocation reported by mallinfo(arena+hblkhd)
        432369 MiB available memory on the node where the printing process lives
     GPU memory used/free/total (MiB): 2074 / 62870 / 64944
------------------
     ethr =  8.32E-03,  avg # of iterations =  3.2

     =================== HUBBARD OCCUPATIONS ===================
     ------------------------ ATOM    3 ------------------------
     Tr[ns(  3)] (up, down, total) =   0.59287  0.51861  1.11148
     Atomic magnetic moment for atom   3 =   0.07426
     SPIN  1
     eigenvalues:
       0.086  0.098  0.125  0.132  0.152
     eigenvectors (columns):
      -0.065 -0.997 -0.000  0.001 -0.049
       0.239  0.011 -0.684 -0.438 -0.533
       0.438 -0.043  0.405 -0.747  0.289
      -0.417 -0.007 -0.523 -0.258  0.697
       0.757 -0.067 -0.307  0.428  0.380
     occupation matrix ns (before diag.):
       0.098  0.002 -0.000 -0.002 -0.000
       0.002  0.132 -0.006 -0.005 -0.014
      -0.000 -0.006  0.124  0.014 -0.012
      -0.002 -0.005  0.014  0.132  0.019
      -0.000 -0.014 -0.012  0.019  0.108
     SPIN  2
     eigenvalues:
       0.061  0.086  0.086  0.140  0.147
     eigenvectors (columns):
       0.398 -0.893  0.004  0.212  0.004
       0.343  0.066 -0.791 -0.356  0.353
       0.604  0.126  0.451 -0.609 -0.214
      -0.297 -0.210  0.360 -0.347  0.786
       0.521  0.373  0.201  0.581  0.461
     occupation matrix ns (before diag.):
       0.084 -0.007 -0.013 -0.001  0.002
      -0.007  0.097  0.002  0.026 -0.006
      -0.013  0.002  0.099  0.006 -0.033
      -0.001  0.026  0.006  0.128  0.015
       0.002 -0.006 -0.033  0.015  0.110
     ------------------------ ATOM    4 ------------------------
     Tr[ns(  4)] (up, down, total) =   0.52669  0.47561  1.00230
     Atomic magnetic moment for atom   4 =   0.05107
     SPIN  1
     eigenvalues:
       0.080  0.091  0.107  0.124  0.125
     eigenvectors (columns):
       0.997  0.046  0.047  0.043 -0.010
      -0.001 -0.363  0.098  0.495  0.783
      -0.058  0.178  0.187  0.841 -0.472
      -0.018  0.814 -0.444  0.124  0.354
      -0.051  0.415  0.870 -0.175  0.195
     occupation matrix ns (before diag.):
       0.080  0.001  0.002 -0.000  0.001
       0.001  0.120  0.001  0.011  0.004
       0.002  0.001  0.122 -0.004 -0.005
      -0.000  0.011 -0.004  0.099 -0.005
       0.001  0.004 -0.005 -0.005  0.106
     SPIN  2
     eigenvalues:
       0.064  0.069  0.081  0.128  0.134
     eigenvectors (columns):
      -0.016  0.872 -0.486  0.002 -0.054
      -0.650 -0.229 -0.358  0.572 -0.265
       0.378 -0.373 -0.632 -0.327 -0.460
       0.571  0.117  0.242  0.651 -0.422
       0.329 -0.185 -0.422  0.376  0.734
     occupation matrix ns (before diag.):
       0.072  0.003  0.005  0.000 -0.000
       0.003  0.092  0.001  0.030  0.003
       0.005  0.001  0.093 -0.003 -0.027
       0.000  0.030 -0.003  0.105 -0.008
      -0.000  0.003 -0.027 -0.008  0.114
     ------------------------ ATOM    5 ------------------------
     Tr[ns(  5)] (up, down, total) =   0.52669  0.47561  1.00230
     Atomic magnetic moment for atom   5 =   0.05107
     SPIN  1
     eigenvalues:
       0.080  0.091  0.107  0.124  0.125
     eigenvectors (columns):
       0.997  0.046  0.047  0.043 -0.010
      -0.001 -0.363  0.098  0.495  0.783
      -0.058  0.178  0.187  0.841 -0.472
      -0.018  0.814 -0.444  0.124  0.354
      -0.051  0.415  0.870 -0.175  0.195
     occupation matrix ns (before diag.):
       0.080  0.001  0.002 -0.000  0.001
       0.001  0.120  0.001  0.011  0.004
       0.002  0.001  0.122 -0.004 -0.005
      -0.000  0.011 -0.004  0.099 -0.005
       0.001  0.004 -0.005 -0.005  0.106
     SPIN  2
     eigenvalues:
       0.064  0.069  0.081  0.128  0.134
     eigenvectors (columns):
      -0.016  0.872 -0.486  0.002 -0.054
      -0.650 -0.229 -0.358  0.572 -0.265
       0.378 -0.373 -0.632 -0.327 -0.460
       0.571  0.117  0.242  0.651 -0.422
       0.329 -0.185 -0.422  0.376  0.734
     occupation matrix ns (before diag.):
       0.072  0.003  0.005  0.000 -0.000
       0.003  0.092  0.001  0.030  0.003
       0.005  0.001  0.093 -0.003 -0.027
       0.000  0.030 -0.003  0.105 -0.008
      -0.000  0.003 -0.027 -0.008  0.114

     Number of occupied Hubbard levels =    3.1161

     negative rho (up, down):  3.981E-04 8.931E-04

     HUBBARD ENERGY =    0.9661  (Ry)

     total cpu time spent up to now is      563.9 secs

     total energy              =    -691.09687638 Ry
     estimated scf accuracy    <       3.91892248 Ry

     total magnetization       =    -0.12 Bohr mag/cell
     absolute magnetization    =     0.62 Bohr mag/cell
[tb_dev] Currently allocated     0.00E+00 Mbytes, locked:    0 /   0
[tb_pin] Currently allocated     0.00E+00 Mbytes, locked:    0 /   0

     iteration #  5     ecut=    40.00 Ry     beta= 0.70
     CG style diagonalization

---- Real-time Memory Report at c_bands before calling an iterative solver
          4442 MiB given to the printing process from OS
             0 MiB allocation reported by mallinfo(arena+hblkhd)
        432330 MiB available memory on the node where the printing process lives
     GPU memory used/free/total (MiB): 2074 / 62870 / 64944
------------------
     ethr =  4.35E-03,  avg # of iterations =  3.8

     =================== HUBBARD OCCUPATIONS ===================
     ------------------------ ATOM    3 ------------------------
     Tr[ns(  3)] (up, down, total) =   1.08352  0.72695  1.81047
     Atomic magnetic moment for atom   3 =   0.35657
     SPIN  1
     eigenvalues:
       0.148  0.195  0.200  0.242  0.300
     eigenvectors (columns):
      -0.431 -0.705  0.105 -0.552 -0.028
       0.199  0.143 -0.474 -0.391 -0.750
       0.328  0.381  0.184 -0.731  0.424
      -0.411  0.153 -0.783 -0.047  0.439
       0.706 -0.560 -0.343  0.085  0.253
     occupation matrix ns (before diag.):
       0.200  0.016  0.024 -0.009  0.011
       0.016  0.260 -0.024 -0.028 -0.027
       0.024 -0.024  0.234  0.027 -0.003
      -0.009 -0.028  0.027  0.210  0.026
       0.011 -0.027 -0.003  0.026  0.179
     SPIN  2
     eigenvalues:
       0.083  0.102  0.104  0.213  0.224
[...]
      -0.019 -0.001  0.065  0.007  0.241
     SPIN  2
     eigenvalues:
       0.055  0.059  0.059  0.240  0.250
     eigenvectors (columns):
       0.998 -0.033 -0.051 -0.002 -0.001
      -0.016  0.314 -0.524  0.382 -0.693
       0.035  0.516  0.317  0.699  0.379
       0.021 -0.413  0.675  0.290 -0.538
       0.042  0.681  0.409 -0.530 -0.294
     occupation matrix ns (before diag.):
       0.055  0.000 -0.000 -0.000  0.000
       0.000  0.177 -0.002  0.091  0.002
      -0.000 -0.002  0.175 -0.002 -0.088
      -0.000  0.091 -0.002  0.129  0.003
       0.000  0.002 -0.088  0.003  0.126

     Number of occupied Hubbard levels =    6.5201

     negative rho (up, down):  4.840E-04 2.559E-03

     HUBBARD ENERGY =    0.7637  (Ry)

     total cpu time spent up to now is    29866.7 secs

     total energy              =    -692.13935236 Ry
     estimated scf accuracy    <       0.00000001 Ry

     total magnetization       =     2.00 Bohr mag/cell
     absolute magnetization    =     3.14 Bohr mag/cell
[tb_dev] Currently allocated     0.00E+00 Mbytes, locked:    0 /   0
[tb_pin] Currently allocated     0.00E+00 Mbytes, locked:    0 /   0

     iteration #248     ecut=    40.00 Ry     beta= 0.70
     CG style diagonalization

---- Real-time Memory Report at c_bands before calling an iterative solver
          4470 MiB given to the printing process from OS
             0 MiB allocation reported by mallinfo(arena+hblkhd)
        474711 MiB available memory on the node where the printing process lives
     GPU memory used/free/total (MiB): 2074 / 62870 / 64944
------------------
     ethr =  7.35E-12,  avg # of iterations =  3.7

     =================== HUBBARD OCCUPATIONS ===================
     ------------------------ ATOM    3 ------------------------
     Tr[ns(  3)] (up, down, total) =   1.52113  0.65601  2.17714
     Atomic magnetic moment for atom   3 =   0.86511
     SPIN  1
     eigenvalues:
       0.096  0.228  0.254  0.469  0.475
     eigenvectors (columns):
       0.794  0.009  0.378 -0.467 -0.090
      -0.154 -0.323 -0.187 -0.250 -0.880
      -0.279  0.175 -0.362 -0.821  0.294
       0.252 -0.820 -0.392  0.031  0.332
      -0.452 -0.439  0.733 -0.212  0.145
     occupation matrix ns (before diag.):
       0.203  0.062  0.112 -0.041  0.075
       0.062  0.432 -0.018 -0.067 -0.032
       0.112 -0.018  0.405  0.031  0.029
      -0.041 -0.067  0.031  0.251  0.018
       0.075 -0.032  0.029  0.018  0.231
     SPIN  2
     eigenvalues:
       0.053  0.057  0.061  0.232  0.253
     eigenvectors (columns):
       0.994 -0.007  0.107  0.000 -0.007
       0.025 -0.532 -0.296  0.685 -0.398
       0.054  0.299 -0.526 -0.397 -0.688
      -0.039  0.690  0.387  0.528 -0.304
       0.081  0.388 -0.689  0.306  0.525
     occupation matrix ns (before diag.):
       0.053  0.000  0.000  0.001 -0.001
       0.000  0.171  0.007  0.087 -0.004
       0.000  0.007  0.179  0.004 -0.091
       0.001  0.087  0.004  0.125 -0.004
      -0.001 -0.004 -0.091 -0.004  0.129
     ------------------------ ATOM    4 ------------------------
     Tr[ns(  4)] (up, down, total) =   1.50902  0.66243  2.17145
     Atomic magnetic moment for atom   4 =   0.84659
     SPIN  1
     eigenvalues:
       0.100  0.221  0.232  0.471  0.485
     eigenvectors (columns):
      -0.984 -0.121 -0.027  0.118 -0.045
      -0.060 -0.150 -0.232 -0.370  0.885
      -0.062 -0.245  0.144 -0.880 -0.376
       0.106 -0.493 -0.820  0.102 -0.249
      -0.112  0.812 -0.502 -0.254 -0.108
     occupation matrix ns (before diag.):
       0.108 -0.029 -0.029  0.019 -0.019
      -0.029  0.462 -0.007 -0.065 -0.001
      -0.029 -0.007  0.452  0.002  0.065
       0.019 -0.065  0.002  0.246  0.007
      -0.019 -0.001  0.065  0.007  0.241
     SPIN  2
     eigenvalues:
       0.055  0.059  0.059  0.240  0.250
     eigenvectors (columns):
       0.998 -0.033 -0.050 -0.002 -0.001
      -0.016  0.314 -0.524  0.382 -0.693
       0.034  0.516  0.317  0.699  0.379
       0.021 -0.413  0.675  0.290 -0.538
       0.042  0.681  0.409 -0.530 -0.294
     occupation matrix ns (before diag.):
       0.055  0.000 -0.000 -0.000  0.000
       0.000  0.177 -0.002  0.091  0.002
      -0.000 -0.002  0.175 -0.002 -0.088
      -0.000  0.091 -0.002  0.129  0.003
       0.000  0.002 -0.088  0.003  0.126
     ------------------------ ATOM    5 ------------------------
     Tr[ns(  5)] (up, down, total) =   1.50902  0.66243  2.17145
     Atomic magnetic moment for atom   5 =   0.84659
     SPIN  1
     eigenvalues:
       0.100  0.221  0.232  0.471  0.485
     eigenvectors (columns):
      -0.984 -0.121 -0.027  0.118 -0.045
      -0.060 -0.150 -0.232 -0.370  0.885
      -0.062 -0.245  0.144 -0.880 -0.376
       0.106 -0.493 -0.820  0.102 -0.249
      -0.112  0.812 -0.502 -0.254 -0.108
     occupation matrix ns (before diag.):
       0.108 -0.029 -0.029  0.019 -0.019
      -0.029  0.462 -0.007 -0.065 -0.001
      -0.029 -0.007  0.452  0.002  0.065
       0.019 -0.065  0.002  0.246  0.007
      -0.019 -0.001  0.065  0.007  0.241
     SPIN  2
     eigenvalues:
       0.055  0.059  0.059  0.240  0.250
     eigenvectors (columns):
       0.998 -0.033 -0.050 -0.002 -0.001
      -0.016  0.314 -0.524  0.382 -0.693
       0.034  0.516  0.317  0.699  0.379
       0.021 -0.413  0.675  0.290 -0.538
       0.042  0.681  0.409 -0.530 -0.294
     occupation matrix ns (before diag.):
       0.055  0.000 -0.000 -0.000  0.000
       0.000  0.177 -0.002  0.091  0.002
      -0.000 -0.002  0.175 -0.002 -0.088
      -0.000  0.091 -0.002  0.129  0.003
       0.000  0.002 -0.088  0.003  0.126

     Number of occupied Hubbard levels =    6.5200

     negative rho (up, down):  4.840E-04 2.559E-03

     HUBBARD ENERGY =    0.7637  (Ry)

     total cpu time spent up to now is    29992.1 secs

     total energy              =    -692.13935237 Ry
     estimated scf accuracy    <       0.00000001 Ry

     total magnetization       =     2.00 Bohr mag/cell
     absolute magnetization    =     3.14 Bohr mag/cell
[tb_dev] Currently allocated     0.00E+00 Mbytes, locked:    0 /   0
[tb_pin] Currently allocated     0.00E+00 Mbytes, locked:    0 /   0

     iteration #249     ecut=    40.00 Ry     beta= 0.70
     CG style diagonalization

---- Real-time Memory Report at c_bands before calling an iterative solver
          4470 MiB given to the printing process from OS
             0 MiB allocation reported by mallinfo(arena+hblkhd)
        474711 MiB available memory on the node where the printing process lives
     GPU memory used/free/total (MiB): 2074 / 62870 / 64944
------------------
     ethr =  7.35E-12,  avg # of iterations =  3.8

     =================== HUBBARD OCCUPATIONS ===================
     ------------------------ ATOM    3 ------------------------
     Tr[ns(  3)] (up, down, total) =   1.52116  0.65600  2.17716
     Atomic magnetic moment for atom   3 =   0.86516
     SPIN  1
     eigenvalues:
       0.096  0.228  0.254  0.469  0.475
     eigenvectors (columns):
       0.794  0.009  0.378 -0.466 -0.091
      -0.154 -0.324 -0.186 -0.248 -0.880
      -0.278  0.175 -0.362 -0.821  0.293
       0.252 -0.820 -0.392  0.031  0.332
      -0.452 -0.438  0.733 -0.212  0.145
     occupation matrix ns (before diag.):
       0.203  0.062  0.112 -0.041  0.075
       0.062  0.432 -0.018 -0.067 -0.031
       0.112 -0.018  0.405  0.031  0.029
      -0.041 -0.067  0.031  0.251  0.018
       0.075 -0.031  0.029  0.018  0.231
     SPIN  2
     eigenvalues:
       0.053  0.057  0.061  0.232  0.253
     eigenvectors (columns):
       0.994 -0.008  0.107  0.000 -0.007
       0.025 -0.533 -0.296  0.685 -0.398
       0.054  0.299 -0.526 -0.397 -0.688
      -0.039  0.691  0.387  0.528 -0.304
       0.081  0.388 -0.689  0.306  0.525
     occupation matrix ns (before diag.):
       0.053  0.000  0.000  0.001 -0.001
       0.000  0.171  0.007  0.087 -0.004
       0.000  0.007  0.179  0.004 -0.091
       0.001  0.087  0.004  0.125 -0.004
      -0.001 -0.004 -0.091 -0.004  0.129
     ------------------------ ATOM    4 ------------------------
     Tr[ns(  4)] (up, down, total) =   1.50901  0.66244  2.17145
     Atomic magnetic moment for atom   4 =   0.84657
     SPIN  1
     eigenvalues:
       0.100  0.221  0.232  0.471  0.485
     eigenvectors (columns):
      -0.984 -0.120 -0.027  0.118 -0.046
      -0.060 -0.150 -0.232 -0.370  0.885
      -0.062 -0.245  0.144 -0.880 -0.376
       0.107 -0.494 -0.820  0.102 -0.249
      -0.111  0.812 -0.503 -0.254 -0.108
     occupation matrix ns (before diag.):
       0.108 -0.029 -0.029  0.019 -0.019
      -0.029  0.462 -0.007 -0.065 -0.001
      -0.029 -0.007  0.452  0.002  0.065
       0.019 -0.065  0.002  0.246  0.007
      -0.019 -0.001  0.065  0.007  0.241
     SPIN  2
     eigenvalues:
       0.055  0.059  0.059  0.240  0.250
     eigenvectors (columns):
       0.998 -0.033 -0.051 -0.002 -0.001
      -0.016  0.314 -0.524  0.382 -0.693
       0.035  0.516  0.317  0.699  0.379
       0.021 -0.413  0.675  0.290 -0.538
       0.042  0.681  0.408 -0.530 -0.294
     occupation matrix ns (before diag.):
       0.055  0.000 -0.000 -0.000  0.000
       0.000  0.177 -0.002  0.091  0.002
      -0.000 -0.002  0.175 -0.002 -0.088
      -0.000  0.091 -0.002  0.129  0.003
       0.000  0.002 -0.088  0.003  0.126
     ------------------------ ATOM    5 ------------------------
     Tr[ns(  5)] (up, down, total) =   1.50901  0.66244  2.17145
     Atomic magnetic moment for atom   5 =   0.84657
     SPIN  1
     eigenvalues:
       0.100  0.221  0.232  0.471  0.485
     eigenvectors (columns):
      -0.984 -0.120 -0.027  0.118 -0.046
      -0.060 -0.150 -0.232 -0.370  0.885
      -0.062 -0.245  0.144 -0.880 -0.376
       0.107 -0.494 -0.820  0.102 -0.249
      -0.111  0.812 -0.503 -0.254 -0.108
     occupation matrix ns (before diag.):
       0.108 -0.029 -0.029  0.019 -0.019
      -0.029  0.462 -0.007 -0.065 -0.001
      -0.029 -0.007  0.452  0.002  0.065
       0.019 -0.065  0.002  0.246  0.007
      -0.019 -0.001  0.065  0.007  0.241
     SPIN  2
     eigenvalues:
       0.055  0.059  0.059  0.240  0.250
     eigenvectors (columns):
       0.998 -0.033 -0.051 -0.002 -0.001
      -0.016  0.314 -0.524  0.382 -0.693
       0.035  0.516  0.317  0.699  0.379
       0.021 -0.413  0.675  0.290 -0.538
       0.042  0.681  0.408 -0.530 -0.294
     occupation matrix ns (before diag.):
       0.055  0.000 -0.000 -0.000  0.000
       0.000  0.177 -0.002  0.091  0.002
      -0.000 -0.002  0.175 -0.002 -0.088
      -0.000  0.091 -0.002  0.129  0.003
       0.000  0.002 -0.088  0.003  0.126

     Number of occupied Hubbard levels =    6.5201

     negative rho (up, down):  4.841E-04 2.559E-03

     HUBBARD ENERGY =    0.7637  (Ry)

     total cpu time spent up to now is    30123.7 secs

     total energy              =    -692.13935242 Ry
     estimated scf accuracy    <       0.00000001 Ry

     total magnetization       =     2.00 Bohr mag/cell
     absolute magnetization    =     3.14 Bohr mag/cell
[tb_dev] Currently allocated     0.00E+00 Mbytes, locked:    0 /   0
[tb_pin] Currently allocated     0.00E+00 Mbytes, locked:    0 /   0

     iteration #250     ecut=    40.00 Ry     beta= 0.70
     CG style diagonalization

---- Real-time Memory Report at c_bands before calling an iterative solver
          4470 MiB given to the printing process from OS
             0 MiB allocation reported by mallinfo(arena+hblkhd)
        474710 MiB available memory on the node where the printing process lives
     GPU memory used/free/total (MiB): 2074 / 62870 / 64944
------------------
     ethr =  7.35E-12,  avg # of iterations =  3.5

     =================== HUBBARD OCCUPATIONS ===================
     ------------------------ ATOM    3 ------------------------
     Tr[ns(  3)] (up, down, total) =   1.52123  0.65595  2.17718
     Atomic magnetic moment for atom   3 =   0.86528
     SPIN  1
     eigenvalues:
       0.096  0.228  0.254  0.469  0.475
     eigenvectors (columns):
       0.795  0.009  0.378 -0.466 -0.092
      -0.154 -0.324 -0.187 -0.245 -0.881
      -0.278  0.175 -0.363 -0.822  0.290
       0.252 -0.820 -0.392  0.030  0.332
      -0.452 -0.438  0.733 -0.213  0.144
     occupation matrix ns (before diag.):
       0.203  0.062  0.112 -0.041  0.075
       0.062  0.432 -0.018 -0.067 -0.031
       0.112 -0.018  0.405  0.031  0.029
      -0.041 -0.067  0.031  0.251  0.018
       0.075 -0.031  0.029  0.018  0.231
     SPIN  2
     eigenvalues:
       0.053  0.057  0.061  0.232  0.253
     eigenvectors (columns):
       0.994 -0.008  0.108  0.000 -0.007
       0.025 -0.533 -0.296  0.685 -0.398
       0.054  0.298 -0.526 -0.397 -0.688
      -0.039  0.691  0.387  0.528 -0.304
       0.081  0.388 -0.689  0.306  0.525
     occupation matrix ns (before diag.):
       0.053  0.000  0.000  0.001 -0.001
       0.000  0.171  0.007  0.087 -0.004
       0.000  0.007  0.179  0.004 -0.091
       0.001  0.087  0.004  0.125 -0.004
      -0.001 -0.004 -0.091 -0.004  0.129
     ------------------------ ATOM    4 ------------------------
     Tr[ns(  4)] (up, down, total) =   1.50897  0.66246  2.17143
     Atomic magnetic moment for atom   4 =   0.84652
     SPIN  1
     eigenvalues:
       0.100  0.221  0.232  0.471  0.485
     eigenvectors (columns):
      -0.984 -0.120 -0.027  0.118 -0.046
      -0.060 -0.150 -0.232 -0.370  0.885
      -0.062 -0.245  0.144 -0.880 -0.376
       0.107 -0.494 -0.820  0.102 -0.249
      -0.111  0.812 -0.503 -0.254 -0.108
     occupation matrix ns (before diag.):
       0.108 -0.029 -0.029  0.019 -0.019
      -0.029  0.462 -0.007 -0.065 -0.001
      -0.029 -0.007  0.452  0.002  0.065
       0.019 -0.065  0.002  0.246  0.007
      -0.019 -0.001  0.065  0.007  0.241
     SPIN  2
     eigenvalues:
       0.055  0.059  0.059  0.240  0.250
     eigenvectors (columns):
       0.998 -0.033 -0.051 -0.002 -0.001
      -0.016  0.313 -0.524  0.382 -0.693
       0.035  0.516  0.317  0.699  0.379
       0.021 -0.413  0.675  0.289 -0.538
       0.042  0.681  0.408 -0.530 -0.294
     occupation matrix ns (before diag.):
       0.055  0.000 -0.000 -0.000  0.000
       0.000  0.177 -0.002  0.091  0.002
      -0.000 -0.002  0.175 -0.002 -0.088
      -0.000  0.091 -0.002  0.129  0.003
       0.000  0.002 -0.088  0.003  0.126
     ------------------------ ATOM    5 ------------------------
     Tr[ns(  5)] (up, down, total) =   1.50897  0.66246  2.17143
     Atomic magnetic moment for atom   5 =   0.84652
     SPIN  1
     eigenvalues:
       0.100  0.221  0.232  0.471  0.485
     eigenvectors (columns):
      -0.984 -0.120 -0.027  0.118 -0.046
      -0.060 -0.150 -0.232 -0.370  0.885
      -0.062 -0.245  0.144 -0.880 -0.376
       0.107 -0.494 -0.820  0.102 -0.249
      -0.111  0.812 -0.503 -0.254 -0.108
     occupation matrix ns (before diag.):
       0.108 -0.029 -0.029  0.019 -0.019
      -0.029  0.462 -0.007 -0.065 -0.001
      -0.029 -0.007  0.452  0.002  0.065
       0.019 -0.065  0.002  0.246  0.007
      -0.019 -0.001  0.065  0.007  0.241
     SPIN  2
     eigenvalues:
       0.055  0.059  0.059  0.240  0.250
     eigenvectors (columns):
       0.998 -0.033 -0.051 -0.002 -0.001
      -0.016  0.313 -0.524  0.382 -0.693
       0.035  0.516  0.317  0.699  0.379
       0.021 -0.413  0.675  0.289 -0.538
       0.042  0.681  0.408 -0.530 -0.294
     occupation matrix ns (before diag.):
       0.055  0.000 -0.000 -0.000  0.000
       0.000  0.177 -0.002  0.091  0.002
      -0.000 -0.002  0.175 -0.002 -0.088
      -0.000  0.091 -0.002  0.129  0.003
       0.000  0.002 -0.088  0.003  0.126

     Number of occupied Hubbard levels =    6.5200

     negative rho (up, down):  4.841E-04 2.559E-03

     HUBBARD ENERGY =    0.7637  (Ry)

     total cpu time spent up to now is    30240.3 secs

     total energy              =    -692.13935242 Ry
     estimated scf accuracy    <       0.00000001 Ry

     total magnetization       =     2.00 Bohr mag/cell
     absolute magnetization    =     3.14 Bohr mag/cell

     End of self-consistent calculation

     convergence NOT achieved after 250 iterations: stopping

     Writing config to output data dir ./out/aiida.save/ :
     XML data file, charge density
 
     init_run     :      4.33s CPU      4.84s WALL (       1 calls)
     electrons    :  29780.51s CPU  30234.98s WALL (       1 calls)

     Called by init_run:
     wfcinit      :      2.73s CPU      3.01s WALL (       1 calls)
     potinit      :      0.04s CPU      0.18s WALL (       1 calls)
     hinit0       :      1.19s CPU      1.25s WALL (       1 calls)

     Called by electrons:
     c_bands      :  29021.48s CPU  29471.05s WALL (     250 calls)
     sum_band     :    738.69s CPU    742.88s WALL (     250 calls)
     v_of_rho     :      2.34s CPU      2.40s WALL (     251 calls)
     v_h          :      0.70s CPU      0.70s WALL (     251 calls)
     v_xc         :      1.64s CPU      1.69s WALL (     251 calls)
     newd         :      5.24s CPU      5.28s WALL (     251 calls)
     mix_rho      :      6.57s CPU      6.63s WALL (     250 calls)

     Called by c_bands:
     init_us_2    :    109.54s CPU    110.39s WALL (  284568 calls)
     ccgdiagg     :  27992.07s CPU  28318.22s WALL (  142000 calls)
     wfcrot       :    620.42s CPU    625.83s WALL (  141432 calls)
                                      625.29s GPU  (  141432 calls)

     Called by sum_band:
     sum_band:wei :      5.55s CPU      5.57s WALL (     250 calls)
     sum_band:loo :    466.24s CPU    468.93s WALL (     250 calls)
     sum_band:buf :    117.88s CPU    118.79s WALL (  142000 calls)
     sum_band:ini :     53.30s CPU     53.63s WALL (  142000 calls)
     sum_band:cal :      4.70s CPU      4.71s WALL (  142000 calls)
     sum_band:bec :     76.77s CPU     77.23s WALL (  142000 calls)
     addusdens    :     11.43s CPU     11.49s WALL (     250 calls)
                                       11.49s GPU  (     250 calls)
     addusd:skk   :      0.07s CPU      0.08s WALL (     750 calls)
                                        0.07s GPU  (     750 calls)

     Called by *cgdiagg:
     h_psi        :  11439.61s CPU  11567.90s WALL (19958128 calls)
     s_psi        :  10949.80s CPU  11085.45s WALL (39775392 calls)

     Called by h_psi:
     h_psi:calbec :    171.20s CPU    171.68s WALL (19958128 calls)
     vloc_psi     :   4381.15s CPU   4582.07s WALL (19958128 calls)
                                     4456.56s GPU  (19958128 calls)
     add_vuspsi   :   4619.74s CPU   4677.43s WALL (19958128 calls)
     vhpsi        :   1709.96s CPU   1733.95s WALL (19958128 calls)
     hs_1psi      :  16584.43s CPU  17152.67s WALL (19816696 calls)
                                    17028.41s GPU  (19816696 calls)
     s_1psi       :   5821.36s CPU   6262.65s WALL (19816696 calls)
                                     6137.28s GPU  (19816696 calls)

     General routines
     calbec       :    587.24s CPU    598.03s WALL (60017520 calls)
     fft          :      2.66s CPU      2.92s WALL (    6273 calls)
                                        0.28s GPU  (    5771 calls)
     ffts         :      0.83s CPU      0.84s WALL (    1002 calls)
                                        0.01s GPU  (     500 calls)
     fftw         :    314.57s CPU   1446.11s WALL (41332848 calls)
                                     1192.58s GPU  (41332848 calls)
     interpolate  :      3.90s CPU      3.92s WALL (     502 calls)
     davcio       :      0.21s CPU      2.38s WALL (    1154 calls)
 
     Parallel routines

     Hubbard U routines
     new_ns       :    251.61s CPU    253.00s WALL (     250 calls)
     vhpsi        :   1709.96s CPU   1733.95s WALL (19958128 calls)
 
     PWSCF        :      8h16m CPU      8h24m WALL

 
   This run was terminated on:   5:22:58  16Oct2025            

=------------------------------------------------------------------------------=
   JOB DONE.
=------------------------------------------------------------------------------=
