
     Program PWSCF v.7.4.1 starts on  9Nov2025 at 21:51:25 

     This program is part of the open-source Quantum ESPRESSO suite
     for quantum simulation of materials; please cite
         "P. Giannozzi et al., J. Phys.:Condens. Matter 21 395502 (2009);
         "P. Giannozzi et al., J. Phys.:Condens. Matter 29 465901 (2017);
         "P. Giannozzi et al., J. Chem. Phys. 152 154105 (2020);
          URL http://www.quantum-espresso.org", 
     in publications or presentations arising from this work. More details at
     http://www.quantum-espresso.org/quote

     Parallel version (MPI & OpenMP), running on       1 processor cores
     Number of MPI processes:                 1
     Threads/MPI process:                     1

     MPI processes distributed on     1 nodes
     491715 MiB available memory on the printing compute node when the environment starts
 
     Reading input from pwscf.in
Warning: card &FCP ignored
Warning: card &RISM ignored

     Current dimensions of program PWSCF are:
     Max number of different atomic species (ntypx) = 10
     Max number of k-points (npk) =  40000
     Max angular momentum in pseudopotentials (lmaxx) =  4

     File ./out/aiida.update deleted, as requested

     File ./out/aiida.bfgs deleted, as requested
     file O.pbesol-n-kjpaw_psl.0.1.UPF: wavefunction(s)  2P renormalized
 check tnoseh fnoseh  F    1.000000000000000     
     Message from routine setup:
     using ibrav=0 with symmetry is DISCOURAGED, use correct ibrav instead
 
     Subspace diagonalization in iterative solution of the eigenvalue problem:
     a serial algorithm will be used

 
     G-vector sticks info
     --------------------
     sticks:   dense  smooth     PW     G-vecs:    dense   smooth      PW
     Sum        3653    1835    519               234229    82831   12505
 
     Using Slab Decomposition
 


     bravais-lattice index     =            0
     lattice parameter (alat)  =       9.0465  a.u.
     unit-cell volume          =    1733.4029 (a.u.)^3
     number of atoms/cell      =           21
     number of atomic types    =            4
     number of electrons       =       139.00
     number of Kohn-Sham states=           84
     kinetic-energy cutoff     =      50.0000  Ry
     charge density cutoff     =     400.0000  Ry
     scf convergence threshold =      4.2E-09
     mixing beta               =       0.1000
     number of iterations used =            8  plain     mixing
     energy convergence thresh.=      2.1E-04
     force convergence thresh. =      1.0E-04
     press convergence thresh. =      5.0E-01
     Exchange-correlation= SLA  PW   PSX  PSC
                           (   1   4  10   8   0   0   0)
     nstep                     =           10


     GPU acceleration is ACTIVE.  1 visible GPUs per MPI rank
     GPU-aware MPI enabled


     GPU used by master process:

        Device Number: 0
        Device name: NVIDIA A100-SXM-64GB
        Compute capability : 80
        Ratio of single to double precision performance  : 2
        Memory Clock Rate (KHz): 1593000
        Memory Bus Width (bits): 4096
        Peak Memory Bandwidth (GB/s): ******
     Hubbard projectors: ortho-atomic
     Hubbard parameters of DFT+U (Dudarev formulation) in eV:
     U(V-3d) =  3.9000

     Internal variables: lda_plus_u = T, lda_plus_u_kind = 0

     celldm(1)=   9.046472  celldm(2)=   0.000000  celldm(3)=   0.000000
     celldm(4)=   0.000000  celldm(5)=   0.000000  celldm(6)=   0.000000

     crystal axes: (cart. coord. in units of alat)
               a(1) = (   0.999990  -0.004227  -0.001514 )  
               a(2) = (  -0.382445   1.405428   0.013130 )  
               a(3) = (  -0.104431  -0.055848   1.667506 )  

     reciprocal axes: (cart. coord. in units 2 pi/alat)
               b(1) = (  1.001268  0.271794  0.071809 )  
               b(2) = (  0.003047  0.712132  0.024041 )  
               b(3) = (  0.000885 -0.005361  0.599574 )  


     PseudoPot. # 1 for Na read from file:
     /leonardo_scratch/large/userexternal/nalghamd/mc_mace/GNoME-screening/2_space_group_DFT/pseudo_SSSP1.3_aiida/na_pbesol_v1.5.uspp.F.UPF
     MD5 check sum: 164b46c7694b4bc5b1217b5d1ae6f423
     Pseudo is Ultrasoft, Zval =  9.0
     Generated by new atomic code, or converted to UPF format
     Using radial grid of  819 points,  5 beta functions with: 
                l(1) =   0
                l(2) =   0
                l(3) =   1
                l(4) =   1
                l(5) =   2
     Q(r) pseudized with  8 coefficients,  rinner =    1.250   1.250   1.250
                                                       1.250   1.250

     PseudoPot. # 2 for O  read from file:
     /leonardo_scratch/large/userexternal/nalghamd/mc_mace/GNoME-screening/2_space_group_DFT/pseudo_SSSP1.3_aiida/O.pbesol-n-kjpaw_psl.0.1.UPF
     MD5 check sum: 81d73d1479e654e5638b0319f0d6c2c7
     Pseudo is Projector augmented-wave + core cor, Zval =  6.0
     Generated using "atomic" code by A. Dal Corso  v.6.0 svn rev. 13079
     Shape of augmentation charge: BESSEL
     Using radial grid of 1095 points,  4 beta functions with: 
                l(1) =   0
                l(2) =   0
                l(3) =   1
                l(4) =   1
     Q(r) pseudized with 0 coefficients 


     PseudoPot. # 3 for P  read from file:
     /leonardo_scratch/large/userexternal/nalghamd/mc_mace/GNoME-screening/2_space_group_DFT/pseudo_SSSP1.3_aiida/P.pbesol-n-rrkjus_psl.1.0.0.UPF
     MD5 check sum: bbb94b1b16383820d6a769669b5d42db
     Pseudo is Ultrasoft + core correction, Zval =  5.0
     Generated using "atomic" code by A. Dal Corso  v.6.0 svn rev. 13079
     Using radial grid of 1147 points,  6 beta functions with: 
                l(1) =   0
                l(2) =   0
                l(3) =   1
                l(4) =   1
                l(5) =   2
                l(6) =   2
     Q(r) pseudized with 0 coefficients 


     PseudoPot. # 4 for V  read from file:
     /leonardo_scratch/large/userexternal/nalghamd/mc_mace/GNoME-screening/2_space_group_DFT/pseudo_SSSP1.3_aiida/v_pbesol_v1.4.uspp.F.UPF
     MD5 check sum: 72fa7d0034c41d8adc50bbc8c632b9f9
     Pseudo is Ultrasoft + core correction, Zval = 13.0
     Generated by new atomic code, or converted to UPF format
     Using radial grid of  853 points,  6 beta functions with: 
                l(1) =   0
                l(2) =   0
                l(3) =   1
                l(4) =   1
                l(5) =   2
                l(6) =   2
     Q(r) pseudized with  8 coefficients,  rinner =    1.100   1.100   1.100
                                                       1.100   1.100

     atomic species   valence    mass     pseudopotential
     Na                9.00    22.98977     Na( 1.00)
     O                 6.00    15.99940     O ( 1.00)
     P                 5.00    30.97376     P ( 1.00)
     V                13.00    50.94150     V ( 1.00)

     Starting magnetic structure 
     atomic species   magnetization
     Na              0.100
     O               0.100
     P               0.100
     V               0.385

      2 Sym. Ops., with inversion, found


                                    s                        frac. trans.

      isym =  1     identity                                     

 cryst.   s( 1) = (     1          0          0      )
                  (     0          1          0      )
                  (     0          0          1      )

 cart.    s( 1) = (  1.0000000  0.0000000 -0.0000000 )
                  ( -0.0000000  1.0000000  0.0000000 )
                  ( -0.0000000  0.0000000  1.0000000 )


      isym =  2     inversion                                    

 cryst.   s( 2) = (    -1          0          0      )
                  (     0         -1          0      )
                  (     0          0         -1      )

 cart.    s( 2) = ( -1.0000000 -0.0000000  0.0000000 )
                  (  0.0000000 -1.0000000 -0.0000000 )
                  (  0.0000000 -0.0000000 -1.0000000 )


   Cartesian axes

     site n.     atom                  positions (alat units)
         1        Na     tau(   1) = (  -0.0522155  -0.0279238   0.8337532  )
         2        V      tau(   2) = (   0.2565568   0.6726766   0.8395613  )
         3        V      tau(   3) = (   0.0000000   0.0000000   0.0000000  )
         4        P      tau(   4) = (  -0.2544272   0.8594531   0.4290484  )
         5        P      tau(   5) = (   0.7675408   0.4859001   1.2500742  )
         6        P      tau(   6) = (   0.5095172   0.3103123   0.3352023  )
         7        P      tau(   7) = (   0.0035963   1.0350408   1.3439203  )
         8        O      tau(   8) = (   0.5942844   0.6205997   0.2385511  )
         9        O      tau(   9) = (  -0.0811709   0.7247535   1.4405715  )
        10        O      tau(  10) = (   0.3997958   0.3173052   0.6335976  )
        11        O      tau(  11) = (   0.1133177   1.0280479   1.0455250  )
        12        O      tau(  12) = (   0.0308550   0.7467117   0.5073241  )
        13        O      tau(  13) = (   0.4822585   0.5986415   1.1717985  )
        14        O      tau(  14) = (   0.5560463   0.9150823   0.6797209  )
        15        O      tau(  15) = (  -0.2544947   1.2263843   1.3606246  )
        16        O      tau(  16) = (   0.7676083   0.1189688   0.3184980  )
        17        O      tau(  17) = (   0.7399839   0.2313896   1.4383909  )
        18        O      tau(  18) = (  -0.2268704   1.1139635   0.2407317  )
        19        O      tau(  19) = (   0.2262251   1.1123036   1.5640785  )
        20        O      tau(  20) = (   0.2868884   0.2330495   0.1150441  )
        21        O      tau(  21) = (  -0.0429327   0.4302708   0.9994017  )

   Crystallographic axes

     site n.     atom                  positions (cryst. coord.)
         1        Na     tau(   1) = ( -0.0000000  0.0000000  0.5000000  )
         2        V      tau(   2) = (  0.5000000  0.5000000  0.5000000  )
         3        V      tau(   3) = (  0.0000000  0.0000000  0.0000000  )
         4        P      tau(   4) = (  0.0096544  0.6215834  0.2524139  )
         5        P      tau(   5) = (  0.9903456  0.3784166  0.7475861  )
         6        P      tau(   6) = (  0.6185749  0.2305942  0.1997659  )
         7        P      tau(   7) = (  0.3814251  0.7694058  0.8002341  )
         8        O      tau(   8) = (  0.7808434  0.4494942  0.1402281  )
         9        O      tau(   9) = (  0.2191566  0.5505058  0.8597719  )
        10        O      tau(  10) = (  0.5320426  0.2424136  0.3785413  )
        11        O      tau(  11) = (  0.4679574  0.7575864  0.6214587  )
        12        O      tau(  12) = (  0.2702767  0.5440477  0.3002027  )
        13        O      tau(  13) = (  0.7297233  0.4559523  0.6997973  )
        14        O      tau(  14) = (  0.8542756  0.6696944  0.4031295  )
        15        O      tau(  15) = (  0.1762125  0.9052829  0.8089955  )
        16        O      tau(  16) = (  0.8237875  0.0947171  0.1910045  )
        17        O      tau(  17) = (  0.9071022  0.2016151  0.8618358  )
        18        O      tau(  18) = (  0.0928978  0.7983849  0.1381642  )
        19        O      tau(  19) = (  0.6411451  0.8303982  0.9320180  )
        20        O      tau(  20) = (  0.3588549  0.1696018  0.0679820  )
        21        O      tau(  21) = (  0.1457244  0.3303056  0.5968705  )

     number of k points=   190  Marzari-Vanderbilt smearing, width (Ry)=  0.0200
                       cart. coord. in units 2pi/alat
        k(    1) = (   0.0000000   0.0000000   0.0000000), wk =   0.0026455
        k(    2) = (   0.0001475  -0.0008934   0.0999289), wk =   0.0052910
        k(    3) = (   0.0002949  -0.0017868   0.1998579), wk =   0.0052910
        k(    4) = (  -0.0004424   0.0026803  -0.2997868), wk =   0.0026455
        k(    5) = (   0.0004352   0.1017331   0.0034345), wk =   0.0052910
        k(    6) = (   0.0005827   0.1008397   0.1033634), wk =   0.0052910
        k(    7) = (   0.0007302   0.0999462   0.2032924), wk =   0.0052910
        k(    8) = (  -0.0000072   0.1044133  -0.2963524), wk =   0.0052910
        k(    9) = (   0.0001403   0.1035199  -0.1964234), wk =   0.0052910
        k(   10) = (   0.0002877   0.1026265  -0.0964945), wk =   0.0052910
        k(   11) = (   0.0008704   0.2034662   0.0068689), wk =   0.0052910
        k(   12) = (   0.0010179   0.2025727   0.1067979), wk =   0.0052910
        k(   13) = (   0.0011654   0.2016793   0.2067268), wk =   0.0052910
        k(   14) = (   0.0004280   0.2061464  -0.2929179), wk =   0.0052910
        k(   15) = (   0.0005755   0.2052530  -0.1929890), wk =   0.0052910
        k(   16) = (   0.0007230   0.2043596  -0.0930600), wk =   0.0052910
        k(   17) = (   0.0013057   0.3051993   0.0103034), wk =   0.0052910
        k(   18) = (   0.0014531   0.3043058   0.1102324), wk =   0.0052910
        k(   19) = (   0.0016006   0.3034124   0.2101613), wk =   0.0052910
        k(   20) = (   0.0008632   0.3078795  -0.2894834), wk =   0.0052910
        k(   21) = (   0.0010107   0.3069861  -0.1895545), wk =   0.0052910
        k(   22) = (   0.0011582   0.3060927  -0.0896255), wk =   0.0052910
        k(   23) = (   0.1112520   0.0301994   0.0079788), wk =   0.0052910
        k(   24) = (   0.1113994   0.0293060   0.1079078), wk =   0.0052910
        k(   25) = (   0.1115469   0.0284125   0.2078367), wk =   0.0052910
        k(   26) = (   0.1108095   0.0328796  -0.2918080), wk =   0.0052910
        k(   27) = (   0.1109570   0.0319862  -0.1918791), wk =   0.0052910
        k(   28) = (   0.1111045   0.0310928  -0.0919501), wk =   0.0052910
        k(   29) = (   0.1116872   0.1319325   0.0114133), wk =   0.0052910
        k(   30) = (   0.1118347   0.1310390   0.1113422), wk =   0.0052910
        k(   31) = (   0.1119821   0.1301456   0.2112712), wk =   0.0052910
        k(   32) = (   0.1112448   0.1346127  -0.2883736), wk =   0.0052910
        k(   33) = (   0.1113922   0.1337193  -0.1884446), wk =   0.0052910
        k(   34) = (   0.1115397   0.1328259  -0.0885157), wk =   0.0052910
        k(   35) = (   0.1121224   0.2336655   0.0148478), wk =   0.0052910
        k(   36) = (   0.1122699   0.2327721   0.1147767), wk =   0.0052910
        k(   37) = (   0.1124174   0.2318787   0.2147057), wk =   0.0052910
        k(   38) = (   0.1116800   0.2363458  -0.2849391), wk =   0.0052910
        k(   39) = (   0.1118275   0.2354524  -0.1850101), wk =   0.0052910
        k(   40) = (   0.1119749   0.2345590  -0.0850812), wk =   0.0052910
        k(   41) = (   0.1125576   0.3353986   0.0182822), wk =   0.0052910
        k(   42) = (   0.1127051   0.3345052   0.1182112), wk =   0.0052910
        k(   43) = (   0.1128526   0.3336118   0.2181401), wk =   0.0052910
        k(   44) = (   0.1121152   0.3380789  -0.2815046), wk =   0.0052910
        k(   45) = (   0.1122627   0.3371855  -0.1815757), wk =   0.0052910
        k(   46) = (   0.1124101   0.3362920  -0.0816467), wk =   0.0052910
        k(   47) = (   0.1099463  -0.2749999  -0.0023246), wk =   0.0052910
        k(   48) = (   0.1100938  -0.2758933   0.0976043), wk =   0.0052910
        k(   49) = (   0.1102412  -0.2767867   0.1975333), wk =   0.0052910
        k(   50) = (   0.1095039  -0.2723196  -0.3021115), wk =   0.0052910
        k(   51) = (   0.1096513  -0.2732130  -0.2021825), wk =   0.0052910
        k(   52) = (   0.1097988  -0.2741065  -0.1022536), wk =   0.0052910
        k(   53) = (   0.1103815  -0.1732668   0.0011099), wk =   0.0052910
        k(   54) = (   0.1105290  -0.1741602   0.1010388), wk =   0.0052910
        k(   55) = (   0.1106765  -0.1750536   0.2009678), wk =   0.0052910
        k(   56) = (   0.1099391  -0.1705865  -0.2986770), wk =   0.0052910
        k(   57) = (   0.1100866  -0.1714800  -0.1987480), wk =   0.0052910
        k(   58) = (   0.1102340  -0.1723734  -0.0988191), wk =   0.0052910
        k(   59) = (   0.1108167  -0.0715337   0.0045443), wk =   0.0052910
        k(   60) = (   0.1109642  -0.0724271   0.1044733), wk =   0.0052910
        k(   61) = (   0.1111117  -0.0733205   0.2044022), wk =   0.0052910
        k(   62) = (   0.1103743  -0.0688535  -0.2952425), wk =   0.0052910
        k(   63) = (   0.1105218  -0.0697469  -0.1953136), wk =   0.0052910
        k(   64) = (   0.1106693  -0.0706403  -0.0953846), wk =   0.0052910
        k(   65) = (   0.2225039   0.0603987   0.0159576), wk =   0.0052910
        k(   66) = (   0.2226514   0.0595053   0.1158866), wk =   0.0052910
        k(   67) = (   0.2227989   0.0586119   0.2158155), wk =   0.0052910
        k(   68) = (   0.2220615   0.0630790  -0.2838292), wk =   0.0052910
        k(   69) = (   0.2222090   0.0621856  -0.1839003), wk =   0.0052910
        k(   70) = (   0.2223564   0.0612922  -0.0839713), wk =   0.0052910
        k(   71) = (   0.2229391   0.1621318   0.0193921), wk =   0.0052910
        k(   72) = (   0.2230866   0.1612384   0.1193210), wk =   0.0052910
        k(   73) = (   0.2232341   0.1603450   0.2192500), wk =   0.0052910
        k(   74) = (   0.2224967   0.1648121  -0.2803948), wk =   0.0052910
        k(   75) = (   0.2226442   0.1639187  -0.1804658), wk =   0.0052910
        k(   76) = (   0.2227917   0.1630252  -0.0805369), wk =   0.0052910
        k(   77) = (   0.2233744   0.2638649   0.0228266), wk =   0.0052910
        k(   78) = (   0.2235218   0.2629715   0.1227555), wk =   0.0052910
        k(   79) = (   0.2236693   0.2620781   0.2226845), wk =   0.0052910
        k(   80) = (   0.2229319   0.2665452  -0.2769603), wk =   0.0052910
        k(   81) = (   0.2230794   0.2656517  -0.1770313), wk =   0.0052910
        k(   82) = (   0.2232269   0.2647583  -0.0771024), wk =   0.0052910
        k(   83) = (   0.2238096   0.3655980   0.0262610), wk =   0.0052910
        k(   84) = (   0.2239571   0.3647046   0.1261900), wk =   0.0052910
        k(   85) = (   0.2241045   0.3638112   0.2261189), wk =   0.0052910
        k(   86) = (   0.2233672   0.3682783  -0.2735258), wk =   0.0052910
        k(   87) = (   0.2235146   0.3673848  -0.1735969), wk =   0.0052910
        k(   88) = (   0.2236621   0.3664914  -0.0736679), wk =   0.0052910
        k(   89) = (   0.2211983  -0.2448005   0.0056542), wk =   0.0052910
        k(   90) = (   0.2213457  -0.2456939   0.1055832), wk =   0.0052910
        k(   91) = (   0.2214932  -0.2465873   0.2055121), wk =   0.0052910
        k(   92) = (   0.2207558  -0.2421203  -0.2941326), wk =   0.0052910
        k(   93) = (   0.2209033  -0.2430137  -0.1942037), wk =   0.0052910
        k(   94) = (   0.2210508  -0.2439071  -0.0942747), wk =   0.0052910
        k(   95) = (   0.2216335  -0.1430674   0.0090887), wk =   0.0052910
        k(   96) = (   0.2217810  -0.1439608   0.1090176), wk =   0.0052910
        k(   97) = (   0.2219284  -0.1448543   0.2089466), wk =   0.0052910
        k(   98) = (   0.2211911  -0.1403872  -0.2906982), wk =   0.0052910
        k(   99) = (   0.2213385  -0.1412806  -0.1907692), wk =   0.0052910
        k(  100) = (   0.2214860  -0.1421740  -0.0908403), wk =   0.0052910
        k(  101) = (   0.2220687  -0.0413343   0.0125232), wk =   0.0052910
        k(  102) = (   0.2222162  -0.0422278   0.1124521), wk =   0.0052910
        k(  103) = (   0.2223636  -0.0431212   0.2123811), wk =   0.0052910
        k(  104) = (   0.2216263  -0.0386541  -0.2872637), wk =   0.0052910
        k(  105) = (   0.2217737  -0.0395475  -0.1873347), wk =   0.0052910
        k(  106) = (   0.2219212  -0.0404409  -0.0874058), wk =   0.0052910
        k(  107) = (   0.3337559   0.0905981   0.0239364), wk =   0.0052910
        k(  108) = (   0.3339034   0.0897047   0.1238654), wk =   0.0052910
        k(  109) = (   0.3340508   0.0888113   0.2237943), wk =   0.0052910
        k(  110) = (   0.3333135   0.0932784  -0.2758504), wk =   0.0052910
        k(  111) = (   0.3334609   0.0923850  -0.1759215), wk =   0.0052910
        k(  112) = (   0.3336084   0.0914915  -0.0759925), wk =   0.0052910
        k(  113) = (   0.3341911   0.1923312   0.0273709), wk =   0.0052910
        k(  114) = (   0.3343386   0.1914378   0.1272999), wk =   0.0052910
        k(  115) = (   0.3344860   0.1905444   0.2272288), wk =   0.0052910
        k(  116) = (   0.3337487   0.1950115  -0.2724159), wk =   0.0052910
        k(  117) = (   0.3338962   0.1941180  -0.1724870), wk =   0.0052910
        k(  118) = (   0.3340436   0.1932246  -0.0725580), wk =   0.0052910
        k(  119) = (   0.3346263   0.2940643   0.0308054), wk =   0.0052910
        k(  120) = (   0.3347738   0.2931709   0.1307343), wk =   0.0052910
        k(  121) = (   0.3349213   0.2922774   0.2306633), wk =   0.0052910
        k(  122) = (   0.3341839   0.2967445  -0.2689815), wk =   0.0052910
        k(  123) = (   0.3343314   0.2958511  -0.1690525), wk =   0.0052910
        k(  124) = (   0.3344788   0.2949577  -0.0691236), wk =   0.0052910
        k(  125) = (   0.3350615   0.3957974   0.0342399), wk =   0.0052910
        k(  126) = (   0.3352090   0.3949039   0.1341688), wk =   0.0052910
        k(  127) = (   0.3353565   0.3940105   0.2340978), wk =   0.0052910
        k(  128) = (   0.3346191   0.3984776  -0.2655470), wk =   0.0052910
        k(  129) = (   0.3347666   0.3975842  -0.1656180), wk =   0.0052910
        k(  130) = (   0.3349141   0.3966908  -0.0656891), wk =   0.0052910
        k(  131) = (   0.3324502  -0.2146011   0.0136330), wk =   0.0052910
        k(  132) = (   0.3325977  -0.2154946   0.1135620), wk =   0.0052910
        k(  133) = (   0.3327452  -0.2163880   0.2134909), wk =   0.0052910
        k(  134) = (   0.3320078  -0.2119209  -0.2861538), wk =   0.0052910
        k(  135) = (   0.3321553  -0.2128143  -0.1862249), wk =   0.0052910
        k(  136) = (   0.3323027  -0.2137077  -0.0862959), wk =   0.0052910
        k(  137) = (   0.3328854  -0.1128681   0.0170675), wk =   0.0052910
        k(  138) = (   0.3330329  -0.1137615   0.1169964), wk =   0.0052910
        k(  139) = (   0.3331804  -0.1146549   0.2169254), wk =   0.0052910
        k(  140) = (   0.3324430  -0.1101878  -0.2827194), wk =   0.0052910
        k(  141) = (   0.3325905  -0.1110812  -0.1827904), wk =   0.0052910
        k(  142) = (   0.3327380  -0.1119746  -0.0828615), wk =   0.0052910
        k(  143) = (   0.3333207  -0.0111350   0.0205020), wk =   0.0052910
        k(  144) = (   0.3334681  -0.0120284   0.1204309), wk =   0.0052910
        k(  145) = (   0.3336156  -0.0129218   0.2203599), wk =   0.0052910
        k(  146) = (   0.3328782  -0.0084547  -0.2792849), wk =   0.0052910
        k(  147) = (   0.3330257  -0.0093481  -0.1793559), wk =   0.0052910
        k(  148) = (   0.3331732  -0.0102415  -0.0794270), wk =   0.0052910
        k(  149) = (   0.4450078   0.1207975   0.0319153), wk =   0.0052910
        k(  150) = (   0.4451553   0.1199041   0.1318442), wk =   0.0052910
        k(  151) = (   0.4453028   0.1190106   0.2317732), wk =   0.0052910
        k(  152) = (   0.4445654   0.1234777  -0.2678716), wk =   0.0052910
        k(  153) = (   0.4447129   0.1225843  -0.1679426), wk =   0.0052910
        k(  154) = (   0.4448604   0.1216909  -0.0680137), wk =   0.0052910
        k(  155) = (   0.4454431   0.2225306   0.0353497), wk =   0.0052910
        k(  156) = (   0.4455905   0.2216372   0.1352787), wk =   0.0052910
        k(  157) = (   0.4457380   0.2207437   0.2352076), wk =   0.0052910
        k(  158) = (   0.4450006   0.2252108  -0.2644371), wk =   0.0052910
        k(  159) = (   0.4451481   0.2243174  -0.1645082), wk =   0.0052910
        k(  160) = (   0.4452956   0.2234240  -0.0645792), wk =   0.0052910
        k(  161) = (   0.4458783   0.3242637   0.0387842), wk =   0.0052910
        k(  162) = (   0.4460258   0.3233702   0.1387131), wk =   0.0052910
        k(  163) = (   0.4461732   0.3224768   0.2386421), wk =   0.0052910
        k(  164) = (   0.4454359   0.3269439  -0.2610027), wk =   0.0052910
        k(  165) = (   0.4455833   0.3260505  -0.1610737), wk =   0.0052910
        k(  166) = (   0.4457308   0.3251571  -0.0611448), wk =   0.0052910
        k(  167) = (   0.4463135   0.4259967   0.0422187), wk =   0.0052910
        k(  168) = (   0.4464610   0.4251033   0.1421476), wk =   0.0052910
        k(  169) = (   0.4466085   0.4242099   0.2420766), wk =   0.0052910
        k(  170) = (   0.4458711   0.4286770  -0.2575682), wk =   0.0052910
        k(  171) = (   0.4460186   0.4277836  -0.1576392), wk =   0.0052910
        k(  172) = (   0.4461660   0.4268902  -0.0577103), wk =   0.0052910
        k(  173) = (   0.4437022  -0.1844018   0.0216118), wk =   0.0052910
        k(  174) = (   0.4438496  -0.1852952   0.1215408), wk =   0.0052910
        k(  175) = (   0.4439971  -0.1861886   0.2214697), wk =   0.0052910
        k(  176) = (   0.4432598  -0.1817215  -0.2781750), wk =   0.0052910
        k(  177) = (   0.4434072  -0.1826149  -0.1782461), wk =   0.0052910
        k(  178) = (   0.4435547  -0.1835083  -0.0783171), wk =   0.0052910
        k(  179) = (   0.4441374  -0.0826687   0.0250463), wk =   0.0052910
        k(  180) = (   0.4442849  -0.0835621   0.1249753), wk =   0.0052910
        k(  181) = (   0.4444323  -0.0844555   0.2249042), wk =   0.0052910
        k(  182) = (   0.4436950  -0.0799884  -0.2747405), wk =   0.0052910
        k(  183) = (   0.4438424  -0.0808818  -0.1748116), wk =   0.0052910
        k(  184) = (   0.4439899  -0.0817753  -0.0748826), wk =   0.0052910
        k(  185) = (   0.4445726   0.0190644   0.0284808), wk =   0.0052910
        k(  186) = (   0.4447201   0.0181710   0.1284097), wk =   0.0052910
        k(  187) = (   0.4448676   0.0172776   0.2283387), wk =   0.0052910
        k(  188) = (   0.4441302   0.0217447  -0.2713061), wk =   0.0052910
        k(  189) = (   0.4442777   0.0208512  -0.1713771), wk =   0.0052910
        k(  190) = (   0.4444251   0.0199578  -0.0714482), wk =   0.0052910

                       cryst. coord.
        k(    1) = (   0.0000000   0.0000000   0.0000000), wk =   0.0026455
        k(    2) = (  -0.0000000   0.0000000   0.1666667), wk =   0.0052910
        k(    3) = (  -0.0000000   0.0000000   0.3333333), wk =   0.0052910
        k(    4) = (   0.0000000  -0.0000000  -0.5000000), wk =   0.0026455
        k(    5) = (  -0.0000000   0.1428571   0.0000000), wk =   0.0052910
        k(    6) = (   0.0000000   0.1428571   0.1666667), wk =   0.0052910
        k(    7) = (  -0.0000000   0.1428571   0.3333333), wk =   0.0052910
        k(    8) = (  -0.0000000   0.1428571  -0.5000000), wk =   0.0052910
        k(    9) = (   0.0000000   0.1428571  -0.3333333), wk =   0.0052910
        k(   10) = (  -0.0000000   0.1428571  -0.1666667), wk =   0.0052910
        k(   11) = (  -0.0000000   0.2857143   0.0000000), wk =   0.0052910
        k(   12) = (  -0.0000000   0.2857143   0.1666667), wk =   0.0052910
        k(   13) = (   0.0000000   0.2857143   0.3333333), wk =   0.0052910
        k(   14) = (   0.0000000   0.2857143  -0.5000000), wk =   0.0052910
        k(   15) = (  -0.0000000   0.2857143  -0.3333333), wk =   0.0052910
        k(   16) = (   0.0000000   0.2857143  -0.1666667), wk =   0.0052910
        k(   17) = (   0.0000000   0.4285714  -0.0000000), wk =   0.0052910
        k(   18) = (  -0.0000000   0.4285714   0.1666667), wk =   0.0052910
        k(   19) = (   0.0000000   0.4285714   0.3333333), wk =   0.0052910
        k(   20) = (   0.0000000   0.4285714  -0.5000000), wk =   0.0052910
        k(   21) = (  -0.0000000   0.4285714  -0.3333333), wk =   0.0052910
        k(   22) = (   0.0000000   0.4285714  -0.1666667), wk =   0.0052910
        k(   23) = (   0.1111111   0.0000000  -0.0000000), wk =   0.0052910
        k(   24) = (   0.1111111   0.0000000   0.1666667), wk =   0.0052910
        k(   25) = (   0.1111111   0.0000000   0.3333333), wk =   0.0052910
        k(   26) = (   0.1111111   0.0000000  -0.5000000), wk =   0.0052910
        k(   27) = (   0.1111111   0.0000000  -0.3333333), wk =   0.0052910
        k(   28) = (   0.1111111   0.0000000  -0.1666667), wk =   0.0052910
        k(   29) = (   0.1111111   0.1428571  -0.0000000), wk =   0.0052910
        k(   30) = (   0.1111111   0.1428571   0.1666667), wk =   0.0052910
        k(   31) = (   0.1111111   0.1428571   0.3333333), wk =   0.0052910
        k(   32) = (   0.1111111   0.1428571  -0.5000000), wk =   0.0052910
        k(   33) = (   0.1111111   0.1428571  -0.3333333), wk =   0.0052910
        k(   34) = (   0.1111111   0.1428571  -0.1666667), wk =   0.0052910
        k(   35) = (   0.1111111   0.2857143  -0.0000000), wk =   0.0052910
        k(   36) = (   0.1111111   0.2857143   0.1666667), wk =   0.0052910
        k(   37) = (   0.1111111   0.2857143   0.3333333), wk =   0.0052910
        k(   38) = (   0.1111111   0.2857143  -0.5000000), wk =   0.0052910
        k(   39) = (   0.1111111   0.2857143  -0.3333333), wk =   0.0052910
        k(   40) = (   0.1111111   0.2857143  -0.1666667), wk =   0.0052910
        k(   41) = (   0.1111111   0.4285714   0.0000000), wk =   0.0052910
        k(   42) = (   0.1111111   0.4285714   0.1666667), wk =   0.0052910
        k(   43) = (   0.1111111   0.4285714   0.3333333), wk =   0.0052910
        k(   44) = (   0.1111111   0.4285714  -0.5000000), wk =   0.0052910
        k(   45) = (   0.1111111   0.4285714  -0.3333333), wk =   0.0052910
        k(   46) = (   0.1111111   0.4285714  -0.1666667), wk =   0.0052910
        k(   47) = (   0.1111111  -0.4285714  -0.0000000), wk =   0.0052910
        k(   48) = (   0.1111111  -0.4285714   0.1666667), wk =   0.0052910
        k(   49) = (   0.1111111  -0.4285714   0.3333333), wk =   0.0052910
        k(   50) = (   0.1111111  -0.4285714  -0.5000000), wk =   0.0052910
        k(   51) = (   0.1111111  -0.4285714  -0.3333333), wk =   0.0052910
        k(   52) = (   0.1111111  -0.4285714  -0.1666667), wk =   0.0052910
        k(   53) = (   0.1111111  -0.2857143  -0.0000000), wk =   0.0052910
        k(   54) = (   0.1111111  -0.2857143   0.1666667), wk =   0.0052910
        k(   55) = (   0.1111111  -0.2857143   0.3333333), wk =   0.0052910
        k(   56) = (   0.1111111  -0.2857143  -0.5000000), wk =   0.0052910
        k(   57) = (   0.1111111  -0.2857143  -0.3333333), wk =   0.0052910
        k(   58) = (   0.1111111  -0.2857143  -0.1666667), wk =   0.0052910
        k(   59) = (   0.1111111  -0.1428571  -0.0000000), wk =   0.0052910
        k(   60) = (   0.1111111  -0.1428571   0.1666667), wk =   0.0052910
        k(   61) = (   0.1111111  -0.1428571   0.3333333), wk =   0.0052910
        k(   62) = (   0.1111111  -0.1428571  -0.5000000), wk =   0.0052910
        k(   63) = (   0.1111111  -0.1428571  -0.3333333), wk =   0.0052910
        k(   64) = (   0.1111111  -0.1428571  -0.1666667), wk =   0.0052910
        k(   65) = (   0.2222222   0.0000000  -0.0000000), wk =   0.0052910
        k(   66) = (   0.2222222  -0.0000000   0.1666667), wk =   0.0052910
        k(   67) = (   0.2222222   0.0000000   0.3333333), wk =   0.0052910
        k(   68) = (   0.2222222   0.0000000  -0.5000000), wk =   0.0052910
        k(   69) = (   0.2222222   0.0000000  -0.3333333), wk =   0.0052910
        k(   70) = (   0.2222222   0.0000000  -0.1666667), wk =   0.0052910
        k(   71) = (   0.2222222   0.1428571  -0.0000000), wk =   0.0052910
        k(   72) = (   0.2222222   0.1428571   0.1666667), wk =   0.0052910
        k(   73) = (   0.2222222   0.1428571   0.3333333), wk =   0.0052910
        k(   74) = (   0.2222222   0.1428571  -0.5000000), wk =   0.0052910
        k(   75) = (   0.2222222   0.1428571  -0.3333333), wk =   0.0052910
        k(   76) = (   0.2222222   0.1428571  -0.1666667), wk =   0.0052910
        k(   77) = (   0.2222222   0.2857143  -0.0000000), wk =   0.0052910
        k(   78) = (   0.2222222   0.2857143   0.1666667), wk =   0.0052910
        k(   79) = (   0.2222222   0.2857143   0.3333333), wk =   0.0052910
        k(   80) = (   0.2222222   0.2857143  -0.5000000), wk =   0.0052910
        k(   81) = (   0.2222222   0.2857143  -0.3333333), wk =   0.0052910
        k(   82) = (   0.2222222   0.2857143  -0.1666667), wk =   0.0052910
        k(   83) = (   0.2222222   0.4285714  -0.0000000), wk =   0.0052910
        k(   84) = (   0.2222222   0.4285714   0.1666667), wk =   0.0052910
        k(   85) = (   0.2222222   0.4285714   0.3333333), wk =   0.0052910
        k(   86) = (   0.2222222   0.4285714  -0.5000000), wk =   0.0052910
        k(   87) = (   0.2222222   0.4285714  -0.3333333), wk =   0.0052910
        k(   88) = (   0.2222222   0.4285714  -0.1666667), wk =   0.0052910
        k(   89) = (   0.2222222  -0.4285714  -0.0000000), wk =   0.0052910
        k(   90) = (   0.2222222  -0.4285714   0.1666667), wk =   0.0052910
        k(   91) = (   0.2222222  -0.4285714   0.3333333), wk =   0.0052910
        k(   92) = (   0.2222222  -0.4285714  -0.5000000), wk =   0.0052910
        k(   93) = (   0.2222222  -0.4285714  -0.3333333), wk =   0.0052910
        k(   94) = (   0.2222222  -0.4285714  -0.1666667), wk =   0.0052910
        k(   95) = (   0.2222222  -0.2857143  -0.0000000), wk =   0.0052910
        k(   96) = (   0.2222222  -0.2857143   0.1666667), wk =   0.0052910
        k(   97) = (   0.2222222  -0.2857143   0.3333333), wk =   0.0052910
        k(   98) = (   0.2222222  -0.2857143  -0.5000000), wk =   0.0052910
        k(   99) = (   0.2222222  -0.2857143  -0.3333333), wk =   0.0052910
        k(  100) = (   0.2222222  -0.2857143  -0.1666667), wk =   0.0052910
        k(  101) = (   0.2222222  -0.1428571  -0.0000000), wk =   0.0052910
        k(  102) = (   0.2222222  -0.1428571   0.1666667), wk =   0.0052910
        k(  103) = (   0.2222222  -0.1428571   0.3333333), wk =   0.0052910
        k(  104) = (   0.2222222  -0.1428571  -0.5000000), wk =   0.0052910
        k(  105) = (   0.2222222  -0.1428571  -0.3333333), wk =   0.0052910
        k(  106) = (   0.2222222  -0.1428571  -0.1666667), wk =   0.0052910
        k(  107) = (   0.3333333   0.0000000  -0.0000000), wk =   0.0052910
        k(  108) = (   0.3333333   0.0000000   0.1666667), wk =   0.0052910
        k(  109) = (   0.3333333   0.0000000   0.3333333), wk =   0.0052910
        k(  110) = (   0.3333333   0.0000000  -0.5000000), wk =   0.0052910
        k(  111) = (   0.3333333   0.0000000  -0.3333333), wk =   0.0052910
        k(  112) = (   0.3333333   0.0000000  -0.1666667), wk =   0.0052910
        k(  113) = (   0.3333333   0.1428571  -0.0000000), wk =   0.0052910
        k(  114) = (   0.3333333   0.1428571   0.1666667), wk =   0.0052910
        k(  115) = (   0.3333333   0.1428571   0.3333333), wk =   0.0052910
        k(  116) = (   0.3333333   0.1428571  -0.5000000), wk =   0.0052910
        k(  117) = (   0.3333333   0.1428571  -0.3333333), wk =   0.0052910
        k(  118) = (   0.3333333   0.1428571  -0.1666667), wk =   0.0052910
        k(  119) = (   0.3333333   0.2857143  -0.0000000), wk =   0.0052910
        k(  120) = (   0.3333333   0.2857143   0.1666667), wk =   0.0052910
        k(  121) = (   0.3333333   0.2857143   0.3333333), wk =   0.0052910
        k(  122) = (   0.3333333   0.2857143  -0.5000000), wk =   0.0052910
        k(  123) = (   0.3333333   0.2857143  -0.3333333), wk =   0.0052910
        k(  124) = (   0.3333333   0.2857143  -0.1666667), wk =   0.0052910
        k(  125) = (   0.3333333   0.4285714  -0.0000000), wk =   0.0052910
        k(  126) = (   0.3333333   0.4285714   0.1666667), wk =   0.0052910
        k(  127) = (   0.3333333   0.4285714   0.3333333), wk =   0.0052910
        k(  128) = (   0.3333333   0.4285714  -0.5000000), wk =   0.0052910
        k(  129) = (   0.3333333   0.4285714  -0.3333333), wk =   0.0052910
        k(  130) = (   0.3333333   0.4285714  -0.1666667), wk =   0.0052910
        k(  131) = (   0.3333333  -0.4285714  -0.0000000), wk =   0.0052910
        k(  132) = (   0.3333333  -0.4285714   0.1666667), wk =   0.0052910
        k(  133) = (   0.3333333  -0.4285714   0.3333333), wk =   0.0052910
        k(  134) = (   0.3333333  -0.4285714  -0.5000000), wk =   0.0052910
        k(  135) = (   0.3333333  -0.4285714  -0.3333333), wk =   0.0052910
        k(  136) = (   0.3333333  -0.4285714  -0.1666667), wk =   0.0052910
        k(  137) = (   0.3333333  -0.2857143  -0.0000000), wk =   0.0052910
        k(  138) = (   0.3333333  -0.2857143   0.1666667), wk =   0.0052910
        k(  139) = (   0.3333333  -0.2857143   0.3333333), wk =   0.0052910
        k(  140) = (   0.3333333  -0.2857143  -0.5000000), wk =   0.0052910
        k(  141) = (   0.3333333  -0.2857143  -0.3333333), wk =   0.0052910
        k(  142) = (   0.3333333  -0.2857143  -0.1666667), wk =   0.0052910
        k(  143) = (   0.3333333  -0.1428571  -0.0000000), wk =   0.0052910
        k(  144) = (   0.3333333  -0.1428571   0.1666667), wk =   0.0052910
        k(  145) = (   0.3333333  -0.1428571   0.3333333), wk =   0.0052910
        k(  146) = (   0.3333333  -0.1428571  -0.5000000), wk =   0.0052910
        k(  147) = (   0.3333333  -0.1428571  -0.3333333), wk =   0.0052910
        k(  148) = (   0.3333333  -0.1428571  -0.1666667), wk =   0.0052910
        k(  149) = (   0.4444444   0.0000000  -0.0000000), wk =   0.0052910
        k(  150) = (   0.4444444   0.0000000   0.1666667), wk =   0.0052910
        k(  151) = (   0.4444444  -0.0000000   0.3333333), wk =   0.0052910
        k(  152) = (   0.4444444   0.0000000  -0.5000000), wk =   0.0052910
        k(  153) = (   0.4444444   0.0000000  -0.3333333), wk =   0.0052910
        k(  154) = (   0.4444444   0.0000000  -0.1666667), wk =   0.0052910
        k(  155) = (   0.4444444   0.1428571  -0.0000000), wk =   0.0052910
        k(  156) = (   0.4444444   0.1428571   0.1666667), wk =   0.0052910
        k(  157) = (   0.4444444   0.1428571   0.3333333), wk =   0.0052910
        k(  158) = (   0.4444444   0.1428571  -0.5000000), wk =   0.0052910
        k(  159) = (   0.4444444   0.1428571  -0.3333333), wk =   0.0052910
        k(  160) = (   0.4444444   0.1428571  -0.1666667), wk =   0.0052910
        k(  161) = (   0.4444444   0.2857143  -0.0000000), wk =   0.0052910
        k(  162) = (   0.4444444   0.2857143   0.1666667), wk =   0.0052910
        k(  163) = (   0.4444444   0.2857143   0.3333333), wk =   0.0052910
        k(  164) = (   0.4444444   0.2857143  -0.5000000), wk =   0.0052910
        k(  165) = (   0.4444444   0.2857143  -0.3333333), wk =   0.0052910
        k(  166) = (   0.4444444   0.2857143  -0.1666667), wk =   0.0052910
        k(  167) = (   0.4444444   0.4285714  -0.0000000), wk =   0.0052910
        k(  168) = (   0.4444444   0.4285714   0.1666667), wk =   0.0052910
        k(  169) = (   0.4444444   0.4285714   0.3333333), wk =   0.0052910
        k(  170) = (   0.4444444   0.4285714  -0.5000000), wk =   0.0052910
        k(  171) = (   0.4444444   0.4285714  -0.3333333), wk =   0.0052910
        k(  172) = (   0.4444444   0.4285714  -0.1666667), wk =   0.0052910
        k(  173) = (   0.4444444  -0.4285714  -0.0000000), wk =   0.0052910
        k(  174) = (   0.4444444  -0.4285714   0.1666667), wk =   0.0052910
        k(  175) = (   0.4444444  -0.4285714   0.3333333), wk =   0.0052910
        k(  176) = (   0.4444444  -0.4285714  -0.5000000), wk =   0.0052910
        k(  177) = (   0.4444444  -0.4285714  -0.3333333), wk =   0.0052910
        k(  178) = (   0.4444444  -0.4285714  -0.1666667), wk =   0.0052910
        k(  179) = (   0.4444444  -0.2857143  -0.0000000), wk =   0.0052910
        k(  180) = (   0.4444444  -0.2857143   0.1666667), wk =   0.0052910
        k(  181) = (   0.4444444  -0.2857143   0.3333333), wk =   0.0052910
        k(  182) = (   0.4444444  -0.2857143  -0.5000000), wk =   0.0052910
        k(  183) = (   0.4444444  -0.2857143  -0.3333333), wk =   0.0052910
        k(  184) = (   0.4444444  -0.2857143  -0.1666667), wk =   0.0052910
        k(  185) = (   0.4444444  -0.1428571  -0.0000000), wk =   0.0052910
        k(  186) = (   0.4444444  -0.1428571   0.1666667), wk =   0.0052910
        k(  187) = (   0.4444444  -0.1428571   0.3333333), wk =   0.0052910
        k(  188) = (   0.4444444  -0.1428571  -0.5000000), wk =   0.0052910
        k(  189) = (   0.4444444  -0.1428571  -0.3333333), wk =   0.0052910
        k(  190) = (   0.4444444  -0.1428571  -0.1666667), wk =   0.0052910

     Dense  grid:   234229 G-vectors     FFT dimensions: (  60,  90, 100)

     Smooth grid:    82831 G-vectors     FFT dimensions: (  45,  60,  72)

     Dynamical RAM for                 wfc:      13.26 MB

     Dynamical RAM for     wfc (w. buffer):    5053.85 MB

     Dynamical RAM for             U proj.:       1.58 MB

     Dynamical RAM for  U proj. (w. buff.):     601.65 MB

     Dynamical RAM for           str. fact:      14.30 MB

     Dynamical RAM for           local pot:       0.00 MB

     Dynamical RAM for          nlocal pot:      36.79 MB

     Dynamical RAM for                qrad:      12.84 MB

     Dynamical RAM for          rho,v,vnew:      46.16 MB

     Dynamical RAM for               rhoin:      15.39 MB

     Dynamical RAM for            rho*nmix:     114.37 MB

     Dynamical RAM for           G-vectors:      14.03 MB

     Dynamical RAM for          h,s,v(r/c):       0.32 MB

     Dynamical RAM for          <psi|beta>:       0.30 MB

     Dynamical RAM for      wfcinit/wfcrot:      26.69 MB

     Dynamical RAM for           addusdens:     718.38 MB

     Dynamical RAM for          addusforce:     811.42 MB

     Dynamical RAM for         addusstress:     723.75 MB

     Estimated static dynamical RAM per process >       5.70 GB

     Estimated max dynamical RAM per process >       6.60 GB

     Check: negative core charge=   -0.000003
     Generating pointlists ...
     new r_m :   0.2010 (alat units)  1.8185 (a.u.) for type    1
     new r_m :   0.1306 (alat units)  1.1814 (a.u.) for type    2
     new r_m :   0.1306 (alat units)  1.1814 (a.u.) for type    3
     new r_m :   0.1597 (alat units)  1.4446 (a.u.) for type    4

     Initial potential from superposition of free atoms

     starting charge     138.9906, renormalised to     139.0000

     negative rho (up, down):  8.675E-04 3.817E-04

     HUBBARD ENERGY =    0.3440  (Ry)

     STARTING HUBBARD OCCUPATIONS:

     =================== HUBBARD OCCUPATIONS ===================
     ------------------------ ATOM    2 ------------------------
     Tr[ns(  2)] (up, down, total) =   3.00000  0.00000  3.00000
     Atomic magnetic moment for atom   2 =   3.00000
     SPIN  1
     eigenvalues:
       0.600  0.600  0.600  0.600  0.600
     eigenvectors (columns):
       1.000  0.000  0.000  0.000  0.000
       0.000  1.000  0.000  0.000  0.000
       0.000  0.000  1.000  0.000  0.000
       0.000  0.000  0.000  1.000  0.000
       0.000  0.000  0.000  0.000  1.000
     occupation matrix ns (before diag.):
       0.600  0.000  0.000  0.000  0.000
       0.000  0.600  0.000  0.000  0.000
       0.000  0.000  0.600  0.000  0.000
       0.000  0.000  0.000  0.600  0.000
       0.000  0.000  0.000  0.000  0.600
     SPIN  2
     eigenvalues:
       0.000  0.000  0.000  0.000  0.000
     eigenvectors (columns):
       1.000  0.000  0.000  0.000  0.000
       0.000  1.000  0.000  0.000  0.000
       0.000  0.000  1.000  0.000  0.000
       0.000  0.000  0.000  1.000  0.000
       0.000  0.000  0.000  0.000  1.000
     occupation matrix ns (before diag.):
       0.000  0.000  0.000  0.000  0.000
       0.000  0.000  0.000  0.000  0.000
       0.000  0.000  0.000  0.000  0.000
       0.000  0.000  0.000  0.000  0.000
       0.000  0.000  0.000  0.000  0.000
     ------------------------ ATOM    3 ------------------------
     Tr[ns(  3)] (up, down, total) =   3.00000  0.00000  3.00000
     Atomic magnetic moment for atom   3 =   3.00000
     SPIN  1
     eigenvalues:
       0.600  0.600  0.600  0.600  0.600
     eigenvectors (columns):
       1.000  0.000  0.000  0.000  0.000
       0.000  1.000  0.000  0.000  0.000
       0.000  0.000  1.000  0.000  0.000
       0.000  0.000  0.000  1.000  0.000
       0.000  0.000  0.000  0.000  1.000
     occupation matrix ns (before diag.):
       0.600  0.000  0.000  0.000  0.000
       0.000  0.600  0.000  0.000  0.000
       0.000  0.000  0.600  0.000  0.000
       0.000  0.000  0.000  0.600  0.000
       0.000  0.000  0.000  0.000  0.600
     SPIN  2
     eigenvalues:
       0.000  0.000  0.000  0.000  0.000
     eigenvectors (columns):
       1.000  0.000  0.000  0.000  0.000
       0.000  1.000  0.000  0.000  0.000
       0.000  0.000  1.000  0.000  0.000
       0.000  0.000  0.000  1.000  0.000
       0.000  0.000  0.000  0.000  1.000
     occupation matrix ns (before diag.):
       0.000  0.000  0.000  0.000  0.000
       0.000  0.000  0.000  0.000  0.000
       0.000  0.000  0.000  0.000  0.000
       0.000  0.000  0.000  0.000  0.000
       0.000  0.000  0.000  0.000  0.000

     Number of occupied Hubbard levels =    6.0000

     Atomic wfc used for Hubbard projectors are orthogonalized

     Starting wfcs are   97 randomized atomic wfcs
     Checking if some PAW data can be deallocated... 

     total cpu time spent up to now is       12.2 secs

     Self-consistent Calculation
[tb_dev] Currently allocated     1.13E+00 Mbytes, locked:    0 /   3
[tb_pin] Currently allocated     0.00E+00 Mbytes, locked:    0 /   0

     iteration #  1     ecut=    50.00 Ry     beta= 0.10
     CG style diagonalization

---- Real-time Memory Report at c_bands before calling an iterative solver
          6350 MiB given to the printing process from OS
             0 MiB allocation reported by mallinfo(arena+hblkhd)
        485907 MiB available memory on the node where the printing process lives
     GPU memory used/free/total (MiB): 2690 / 62254 / 64944
------------------
     ethr =  1.00E-02,  avg # of iterations =  3.0

     =================== HUBBARD OCCUPATIONS ===================
     ------------------------ ATOM    2 ------------------------
     Tr[ns(  2)] (up, down, total) =   2.50479  0.32564  2.83043
     Atomic magnetic moment for atom   2 =   2.17915
     SPIN  1
     eigenvalues:
       0.195  0.215  0.416  0.695  0.984
     eigenvectors (columns):
       0.073  0.446 -0.238  0.649 -0.564
      -0.126 -0.785 -0.284 -0.017 -0.536
       0.675  0.069 -0.672 -0.277  0.107
       0.436  0.130  0.538 -0.431 -0.564
       0.578 -0.405  0.348  0.562  0.255
     occupation matrix ns (before diag.):
       0.673  0.241 -0.101  0.084  0.047
       0.241  0.452 -0.002  0.206 -0.128
      -0.101 -0.002  0.342 -0.068 -0.109
       0.084  0.206 -0.068  0.603 -0.194
       0.047 -0.128 -0.109 -0.194  0.434
     SPIN  2
     eigenvalues:
       0.028  0.035  0.043  0.101  0.119
     eigenvectors (columns):
      -0.534  0.655  0.319 -0.057 -0.426
      -0.502 -0.036  0.316  0.129  0.794
       0.144 -0.300  0.644 -0.685 -0.068
      -0.621 -0.382 -0.512 -0.432 -0.136
       0.237  0.577 -0.347 -0.570  0.407
     occupation matrix ns (before diag.):
       0.049 -0.030  0.007  0.003 -0.012
      -0.030  0.088 -0.008 -0.016  0.022
       0.007 -0.008  0.069  0.018  0.022
       0.003 -0.016  0.018  0.048  0.014
      -0.012  0.022  0.022  0.014  0.071
     ------------------------ ATOM    3 ------------------------
     Tr[ns(  3)] (up, down, total) =   1.71155  0.42010  2.13165
     Atomic magnetic moment for atom   3 =   1.29145
     SPIN  1
     eigenvalues:
       0.220  0.242  0.256  0.351  0.642
     eigenvectors (columns):
       0.227 -0.360 -0.100 -0.435  0.787
       0.683 -0.326  0.017  0.653  0.017
      -0.653 -0.407  0.324  0.463  0.299
       0.230 -0.030  0.926 -0.277 -0.115
       0.059  0.773  0.168  0.306  0.527
     occupation matrix ns (before diag.):
       0.510 -0.029  0.075 -0.026  0.151
      -0.029  0.278  0.045 -0.024  0.025
       0.075  0.045  0.293 -0.020  0.080
      -0.026 -0.024 -0.020  0.266 -0.032
       0.151  0.025  0.080 -0.032  0.363
     SPIN  2
     eigenvalues:
       0.043  0.053  0.055  0.124  0.145
     eigenvectors (columns):
      -0.756  0.526 -0.043  0.252 -0.295
      -0.082 -0.614  0.159  0.707 -0.302
      -0.352 -0.494 -0.295 -0.592 -0.442
       0.034 -0.030 -0.926  0.288  0.239
      -0.545 -0.320  0.168 -0.056  0.755
     occupation matrix ns (before diag.):
       0.060  0.020 -0.001 -0.001 -0.026
       0.020  0.097 -0.018  0.008 -0.024
      -0.001 -0.018  0.095 -0.021 -0.031
      -0.001  0.008 -0.021  0.066  0.015
      -0.026 -0.024 -0.031  0.015  0.103

     Number of occupied Hubbard levels =    4.9621

     negative rho (up, down):  8.176E-04 5.002E-04

     HUBBARD ENERGY =    0.3544  (Ry)

     total cpu time spent up to now is      220.0 secs

     total energy              =   -1015.60379405 Ry
     estimated scf accuracy    <       5.78936541 Ry

     total magnetization       =     3.00 Bohr mag/cell
     absolute magnetization    =     4.25 Bohr mag/cell
[tb_dev] Currently allocated     0.00E+00 Mbytes, locked:    0 /   0
[tb_pin] Currently allocated     0.00E+00 Mbytes, locked:    0 /   0

     iteration #  2     ecut=    50.00 Ry     beta= 0.10
     CG style diagonalization

---- Real-time Memory Report at c_bands before calling an iterative solver
          6391 MiB given to the printing process from OS
             0 MiB allocation reported by mallinfo(arena+hblkhd)
        485868 MiB available memory on the node where the printing process lives
     GPU memory used/free/total (MiB): 2742 / 62202 / 64944
------------------
     ethr =  4.17E-03,  avg # of iterations =  3.0

     =================== HUBBARD OCCUPATIONS ===================
     ------------------------ ATOM    2 ------------------------
     Tr[ns(  2)] (up, down, total) =   2.43350  0.36901  2.80252
     Atomic magnetic moment for atom   2 =   2.06449
     SPIN  1
     eigenvalues:
       0.110  0.168  0.192  0.969  0.994
     eigenvectors (columns):
      -0.249  0.089 -0.429 -0.655  0.563
      -0.263 -0.150  0.790  0.021  0.533
      -0.659  0.692 -0.026  0.273 -0.103
       0.545  0.430 -0.131  0.424  0.566
       0.371  0.552  0.418 -0.562 -0.259
     occupation matrix ns (before diag.):
       0.774  0.225 -0.200  0.050  0.176
       0.225  0.415 -0.051  0.262 -0.110
      -0.200 -0.051  0.211  0.066 -0.087
       0.050  0.262  0.066  0.560 -0.325
       0.176 -0.110 -0.087 -0.325  0.473
     SPIN  2
     eigenvalues:
       0.032  0.040  0.049  0.114  0.133
     eigenvectors (columns):
      -0.561  0.640  0.322 -0.054 -0.410
      -0.493 -0.060  0.304  0.141  0.801
       0.136 -0.301  0.642 -0.689 -0.061
      -0.607 -0.383 -0.529 -0.434 -0.126
       0.233  0.591 -0.335 -0.560  0.413
     occupation matrix ns (before diag.):
       0.054 -0.032  0.008  0.002 -0.013
      -0.032  0.100 -0.009 -0.018  0.025
       0.008 -0.009  0.079  0.021  0.024
       0.002 -0.018  0.021  0.055  0.016
      -0.013  0.025  0.024  0.016  0.080
     ------------------------ ATOM    3 ------------------------
     Tr[ns(  3)] (up, down, total) =   1.75412  0.50767  2.26179
     Atomic magnetic moment for atom   3 =   1.24644
     SPIN  1
     eigenvalues:
       0.139  0.161  0.217  0.244  0.993
     eigenvectors (columns):
       0.034  0.496  0.268 -0.237  0.791
      -0.076 -0.606  0.637 -0.469  0.027
       0.443 -0.366 -0.628 -0.435  0.293
       0.886  0.050  0.357  0.271 -0.110
      -0.110 -0.500 -0.012  0.679  0.526
     occupation matrix ns (before diag.):
       0.689  0.037  0.191 -0.073  0.332
       0.037  0.203  0.002  0.001 -0.015
       0.191  0.002  0.266 -0.058  0.105
      -0.073  0.001 -0.058  0.167 -0.031
       0.332 -0.015  0.105 -0.031  0.429
     SPIN  2
     eigenvalues:
       0.054  0.067  0.071  0.148  0.169
     eigenvectors (columns):
      -0.774 -0.516  0.019 -0.217 -0.294
      -0.088  0.624  0.077 -0.687 -0.353
      -0.322  0.447 -0.370  0.621 -0.417
       0.033 -0.087 -0.917 -0.308  0.237
      -0.536  0.369  0.127  0.034  0.747
     occupation matrix ns (before diag.):
       0.072  0.022 -0.002 -0.001 -0.028
       0.022  0.118 -0.020  0.008 -0.029
      -0.002 -0.020  0.115 -0.024 -0.033
      -0.001  0.008 -0.024  0.083  0.017
      -0.028 -0.029 -0.033  0.017  0.120

     Number of occupied Hubbard levels =    5.0643

     negative rho (up, down):  6.480E-04 1.300E-03

     HUBBARD ENERGY =    0.3309  (Ry)

     total cpu time spent up to now is      363.7 secs

     total energy              =   -1017.28889423 Ry
     estimated scf accuracy    <       4.03592619 Ry

     total magnetization       =     3.00 Bohr mag/cell
     absolute magnetization    =     4.05 Bohr mag/cell
[tb_dev] Currently allocated     0.00E+00 Mbytes, locked:    0 /   0
[tb_pin] Currently allocated     0.00E+00 Mbytes, locked:    0 /   0

     iteration #  3     ecut=    50.00 Ry     beta= 0.10
     CG style diagonalization

---- Real-time Memory Report at c_bands before calling an iterative solver
          6399 MiB given to the printing process from OS
             0 MiB allocation reported by mallinfo(arena+hblkhd)
        485861 MiB available memory on the node where the printing process lives
     GPU memory used/free/total (MiB): 2742 / 62202 / 64944
------------------
     ethr =  2.90E-03,  avg # of iterations =  3.6

     =================== HUBBARD OCCUPATIONS ===================
     ------------------------ ATOM    2 ------------------------
     Tr[ns(  2)] (up, down, total) =   2.47318  0.58942  3.06260
     Atomic magnetic moment for atom   2 =   1.88376
     SPIN  1
     eigenvalues:
       0.248  0.271  0.299  0.655  1.001
     eigenvectors (columns):
      -0.264 -0.142  0.432  0.609 -0.594
      -0.222  0.275 -0.781  0.020 -0.515
      -0.701 -0.640 -0.102 -0.279  0.104
       0.511 -0.455  0.051 -0.466 -0.558
       0.360 -0.536 -0.437  0.578  0.243
     occupation matrix ns (before diag.):
       0.674  0.217 -0.116  0.137  0.026
       0.217  0.481 -0.043  0.208 -0.075
      -0.116 -0.043  0.298  0.015 -0.036
       0.137  0.208  0.015  0.576 -0.207
       0.026 -0.075 -0.036 -0.207  0.445
     SPIN  2
     eigenvalues:
       0.054  0.070  0.093  0.174  0.198
     eigenvectors (columns):
      -0.601  0.629  0.328 -0.047 -0.366
      -0.477 -0.111  0.267  0.184  0.809
       0.112 -0.296  0.641 -0.698 -0.028
      -0.587 -0.369 -0.556 -0.444 -0.112
       0.233  0.607 -0.316 -0.528  0.445
     occupation matrix ns (before diag.):
       0.084 -0.041  0.010 -0.002 -0.018
      -0.041  0.156 -0.011 -0.028  0.036
       0.010 -0.011  0.130  0.026  0.032
      -0.002 -0.028  0.026  0.094  0.024
      -0.018  0.036  0.032  0.024  0.126
     ------------------------ ATOM    3 ------------------------
     Tr[ns(  3)] (up, down, total) =   3.62834  1.11122  4.73956
     Atomic magnetic moment for atom   3 =   2.51712
     SPIN  1
     eigenvalues:
       0.441  0.466  0.781  0.959  0.982
     eigenvectors (columns):
       0.058  0.382  0.140  0.408  0.816
      -0.244  0.736 -0.156 -0.611  0.006
       0.731 -0.159 -0.481 -0.358  0.284
      -0.352  0.025 -0.851  0.387 -0.034
      -0.528 -0.535 -0.011 -0.426  0.503
     occupation matrix ns (before diag.):
       0.897 -0.127  0.025  0.027  0.126
      -0.127  0.656  0.137 -0.077  0.127
       0.025  0.137  0.630  0.062  0.160
       0.027 -0.077  0.062  0.765 -0.092
       0.126  0.127  0.160 -0.092  0.679
     SPIN  2
     eigenvalues:
       0.143  0.185  0.208  0.278  0.297
     eigenvectors (columns):
      -0.808 -0.501 -0.172 -0.086 -0.244
      -0.159  0.589  0.136 -0.495 -0.603
      -0.215  0.152  0.576  0.728 -0.262
       0.042 -0.356  0.786 -0.463  0.199
      -0.524  0.502  0.050 -0.053  0.684
     occupation matrix ns (before diag.):
       0.166  0.015 -0.008 -0.003 -0.036
       0.015  0.248 -0.016  0.011 -0.047
      -0.008 -0.016  0.248 -0.027 -0.028
      -0.003  0.011 -0.027  0.223  0.019
      -0.036 -0.047 -0.028  0.019  0.226

     Number of occupied Hubbard levels =    7.8022

     negative rho (up, down):  6.212E-04 1.046E-03

     HUBBARD ENERGY =    0.3456  (Ry)

     total cpu time spent up to now is      551.3 secs

     total energy              =   -1017.41989254 Ry
     estimated scf accuracy    <       3.27019195 Ry

     total magnetization       =     4.57 Bohr mag/cell
     absolute magnetization    =     5.43 Bohr mag/cell
[tb_dev] Currently allocated     0.00E+00 Mbytes, locked:    0 /   0
[tb_pin] Currently allocated     0.00E+00 Mbytes, locked:    0 /   0

     iteration #  4     ecut=    50.00 Ry     beta= 0.10
     CG style diagonalization

---- Real-time Memory Report at c_bands before calling an iterative solver
          6407 MiB given to the printing process from OS
             0 MiB allocation reported by mallinfo(arena+hblkhd)
        485852 MiB available memory on the node where the printing process lives
     GPU memory used/free/total (MiB): 2742 / 62202 / 64944
------------------
     ethr =  2.35E-03,  avg # of iterations =  3.0

     =================== HUBBARD OCCUPATIONS ===================
     ------------------------ ATOM    2 ------------------------
     Tr[ns(  2)] (up, down, total) =   2.65811  0.56037  3.21849
     Atomic magnetic moment for atom   2 =   2.09774
     SPIN  1
     eigenvalues:
       0.217  0.252  0.283  0.913  0.993
     eigenvectors (columns):
      -0.266  0.101 -0.413 -0.631  0.592
      -0.223 -0.221  0.794  0.027  0.520
      -0.694  0.659  0.049  0.265 -0.107
       0.516  0.462 -0.106  0.448  0.556
       0.363  0.542  0.431 -0.575 -0.242
     occupation matrix ns (before diag.):
       0.778  0.205 -0.165  0.064  0.132
       0.205  0.471 -0.041  0.224 -0.090
      -0.165 -0.041  0.290  0.047 -0.072
       0.064  0.224  0.047  0.604 -0.278
       0.132 -0.090 -0.072 -0.278  0.515
     SPIN  2
     eigenvalues:
       0.050  0.065  0.085  0.167  0.193
     eigenvectors (columns):
       0.604  0.628  0.313 -0.047 -0.376
       0.479 -0.102  0.279  0.167  0.809
      -0.124 -0.280  0.649 -0.695 -0.042
       0.583 -0.394 -0.542 -0.444 -0.117
      -0.225  0.601 -0.332 -0.538  0.434
     occupation matrix ns (before diag.):
       0.080 -0.042  0.010 -0.001 -0.018
      -0.042  0.150 -0.012 -0.027  0.036
       0.010 -0.012  0.123  0.026  0.031
      -0.001 -0.027  0.026  0.088  0.023
      -0.018  0.036  0.031  0.023  0.120
     ------------------------ ATOM    3 ------------------------
     Tr[ns(  3)] (up, down, total) =   2.31125  0.82624  3.13749
     Atomic magnetic moment for atom   3 =   1.48501
     SPIN  1
     eigenvalues:
       0.283  0.328  0.334  0.373  0.993
     eigenvectors (columns):
      -0.344  0.317  0.394 -0.039  0.790
       0.476 -0.183  0.562  0.650  0.033
      -0.345 -0.343 -0.549  0.615  0.291
      -0.428 -0.759  0.410 -0.250 -0.099
       0.594 -0.415 -0.244 -0.367  0.529
     occupation matrix ns (before diag.):
       0.739  0.025  0.145 -0.057  0.287
       0.025  0.340  0.030  0.001 -0.013
       0.145  0.030  0.398 -0.034  0.102
      -0.057  0.001 -0.034  0.330 -0.020
       0.287 -0.013  0.102 -0.020  0.505
     SPIN  2
     eigenvalues:
       0.094  0.121  0.133  0.226  0.253
     eigenvectors (columns):
      -0.795 -0.495 -0.115  0.179 -0.280
      -0.107  0.628  0.054  0.647 -0.415
      -0.273  0.318  0.488 -0.652 -0.402
       0.038 -0.270  0.863  0.351  0.240
      -0.530  0.432 -0.029 -0.038  0.729
     occupation matrix ns (before diag.):
       0.118  0.025 -0.004 -0.003 -0.039
       0.025  0.187 -0.023  0.011 -0.044
      -0.004 -0.023  0.188 -0.032 -0.040
      -0.003  0.011 -0.032  0.150  0.022
      -0.039 -0.044 -0.040  0.022  0.183

     Number of occupied Hubbard levels =    6.3560

     negative rho (up, down):  5.676E-04 1.255E-03

     HUBBARD ENERGY =    0.3533  (Ry)

     total cpu time spent up to now is      696.0 secs

     total energy              =   -1018.37529854 Ry
     estimated scf accuracy    <       0.39062185 Ry

     total magnetization       =     2.81 Bohr mag/cell
     absolute magnetization    =     4.52 Bohr mag/cell
[tb_dev] Currently allocated     0.00E+00 Mbytes, locked:    0 /   0
[tb_pin] Currently allocated     0.00E+00 Mbytes, locked:    0 /   0

     iteration #  5     ecut=    50.00 Ry     beta= 0.10
     CG style diagonalization

---- Real-time Memory Report at c_bands before calling an iterative solver
          6417 MiB given to the printing process from OS
             0 MiB allocation reported by mallinfo(arena+hblkhd)
        485841 MiB available memory on the node where the printing process lives
     GPU memory used/free/total (MiB): 2742 / 62202 / 64944
------------------
     c_bands:  1 eigenvalues not converged
     ethr =  2.81E-04,  avg # of iterations =  3.3

     =================== HUBBARD OCCUPATIONS ===================
     ------------------------ ATOM    2 ------------------------
     Tr[ns(  2)] (up, down, total) =   2.66862  0.53780  3.20642
     Atomic magnetic moment for atom   2 =   2.13082
     SPIN  1
     eigenvalues:
       0.191  0.237  0.270  0.977  0.993
     eigenvectors (columns):
      -0.265  0.098 -0.412 -0.608  0.617
      -0.233 -0.209  0.795  0.054  0.517
      -0.682  0.672  0.035  0.263 -0.117
       0.527  0.453 -0.109  0.464  0.539
       0.365  0.539  0.431 -0.586 -0.219
     occupation matrix ns (before diag.):
       0.801  0.203 -0.182  0.051  0.160
       0.203  0.459 -0.042  0.232 -0.094
      -0.182 -0.042  0.278  0.059 -0.083
       0.051  0.232  0.059  0.603 -0.301
       0.160 -0.094 -0.083 -0.301  0.527
     SPIN  2
     eigenvalues:
       0.047  0.061  0.080  0.161  0.188
     eigenvectors (columns):
      -0.596 -0.633  0.311 -0.051 -0.381
      -0.484  0.095  0.281  0.167  0.806
       0.125  0.282  0.648 -0.695 -0.040
      -0.585  0.391 -0.542 -0.445 -0.117
       0.229 -0.598 -0.333 -0.537  0.436
     occupation matrix ns (before diag.):
       0.077 -0.042  0.010 -0.000 -0.018
      -0.042  0.145 -0.011 -0.026  0.035
       0.010 -0.011  0.118  0.026  0.031
      -0.000 -0.026  0.026  0.084  0.023
      -0.018  0.035  0.031  0.023  0.116
     ------------------------ ATOM    3 ------------------------
     Tr[ns(  3)] (up, down, total) =   2.17981  0.78367  2.96349
     Atomic magnetic moment for atom   3 =   1.39614
     SPIN  1
     eigenvalues:
       0.250  0.285  0.311  0.344  0.990
     eigenvectors (columns):
      -0.354 -0.358  0.338 -0.088  0.790
       0.486  0.279  0.573 -0.597  0.033
      -0.253  0.473 -0.586 -0.532  0.292
      -0.532  0.653  0.443  0.291 -0.099
       0.539  0.380 -0.133  0.518  0.528
     occupation matrix ns (before diag.):
       0.724  0.032  0.157 -0.060  0.297
       0.032  0.307  0.021  0.003 -0.017
       0.157  0.021  0.368 -0.041  0.099
      -0.060  0.003 -0.041  0.292 -0.020
       0.297 -0.017  0.099 -0.020  0.488
     SPIN  2
     eigenvalues:
       0.087  0.112  0.123  0.217  0.245
     eigenvectors (columns):
      -0.795 -0.495 -0.092  0.189 -0.280
      -0.100  0.632  0.030  0.657 -0.399
      -0.275  0.342  0.476 -0.642 -0.412
       0.044 -0.240  0.873  0.345  0.242
      -0.529  0.426 -0.041 -0.045  0.731
     occupation matrix ns (before diag.):
       0.110  0.026 -0.004 -0.002 -0.039
       0.026  0.178 -0.023  0.011 -0.043
      -0.004 -0.023  0.178 -0.032 -0.041
      -0.002  0.011 -0.032  0.141  0.022
      -0.039 -0.043 -0.041  0.022  0.176

     Number of occupied Hubbard levels =    6.1699

     negative rho (up, down):  2.288E-04 2.923E-03

     HUBBARD ENERGY =    0.3727  (Ry)

     total cpu time spent up to now is      857.9 secs

     total energy              =   -1018.61473666 Ry
     estimated scf accuracy    <       0.32198297 Ry

     total magnetization       =     3.00 Bohr mag/cell
     absolute magnetization    =     4.28 Bohr mag/cell
[tb_dev] Currently allocated     0.00E+00 Mbytes, locked:    0 /   0
[tb_pin] Currently allocated     0.00E+00 Mbytes, locked:    0 /   0

     iteration #  6     ecut=    50.00 Ry     beta= 0.10
     CG style diagonalization

---- Real-time Memory Report at c_bands before calling an iterative solver
          6425 MiB given to the printing process from OS
             0 MiB allocation reported by mallinfo(arena+hblkhd)
        485833 MiB available memory on the node where the printing process lives
     GPU memory used/free/total (MiB): 2742 / 62202 / 64944
------------------
     c_bands:  1 eigenvalues not converged
     ethr =  2.32E-04,  avg # of iterations =  3.1
     Minimization algorithm failed to find Fermi energy: reverting to bisection
     Possible cause: smearing is larger than the electronic band-gap.

     =================== HUBBARD OCCUPATIONS ===================
     ------------------------ ATOM    2 ------------------------
     Tr[ns(  2)] (up, down, total) =   2.54977  0.50353  3.05330
     Atomic magnetic moment for atom   2 =   2.04623
     SPIN  1
     eigenvalues:
       0.130  0.198  0.238  0.988  0.995
     eigenvectors (columns):
       0.258  0.099 -0.412  0.476 -0.726
       0.255 -0.211  0.798 -0.140 -0.483
       0.667  0.686  0.022 -0.243  0.159
      -0.541  0.437 -0.081 -0.554 -0.450
      -0.361  0.533  0.431  0.623  0.108
     occupation matrix ns (before diag.):
       0.799  0.209 -0.195  0.063  0.171
       0.209  0.421 -0.045  0.241 -0.090
      -0.195 -0.045  0.235  0.074 -0.089
       0.063  0.241  0.074  0.583 -0.326
       0.171 -0.090 -0.089 -0.326  0.513
     SPIN  2
     eigenvalues:
       0.041  0.053  0.075  0.151  0.183
     eigenvectors (columns):
       0.579  0.648  0.300 -0.067 -0.389
       0.499 -0.080  0.282  0.177  0.796
      -0.121 -0.281  0.649 -0.696 -0.028
       0.585 -0.386 -0.543 -0.447 -0.114
      -0.243  0.588 -0.339 -0.528  0.448
     occupation matrix ns (before diag.):
       0.071 -0.043  0.011  0.001 -0.020
      -0.043  0.137 -0.010 -0.026  0.036
       0.011 -0.010  0.110  0.024  0.029
       0.001 -0.026  0.024  0.077  0.022
      -0.020  0.036  0.029  0.022  0.108
     ------------------------ ATOM    3 ------------------------
     Tr[ns(  3)] (up, down, total) =   1.93342  0.73387  2.66730
     Atomic magnetic moment for atom   3 =   1.19955
     SPIN  1
     eigenvalues:
       0.182  0.201  0.263  0.297  0.990
     eigenvectors (columns):
       0.404 -0.289  0.285 -0.216  0.791
      -0.562  0.272  0.611 -0.485  0.034
       0.029  0.581 -0.608 -0.454  0.293
       0.530  0.677  0.415  0.281 -0.097
      -0.489  0.217 -0.053  0.658  0.527
     occupation matrix ns (before diag.):
       0.701  0.047  0.181 -0.063  0.318
       0.047  0.242  0.006  0.006 -0.024
       0.181  0.006  0.311 -0.051  0.095
      -0.063  0.006 -0.051  0.221 -0.019
       0.318 -0.024  0.095 -0.019  0.458
     SPIN  2
     eigenvalues:
       0.076  0.102  0.111  0.207  0.237
     eigenvectors (columns):
      -0.801 -0.486 -0.041  0.205 -0.280
      -0.083  0.638 -0.024  0.667 -0.376
      -0.269  0.387  0.449 -0.628 -0.426
       0.057 -0.168  0.889  0.340  0.248
      -0.525  0.424 -0.068 -0.060  0.733
     occupation matrix ns (before diag.):
       0.100  0.027 -0.003 -0.001 -0.040
       0.027  0.168 -0.023  0.011 -0.043
      -0.003 -0.023  0.168 -0.033 -0.042
      -0.001  0.011 -0.033  0.130  0.023
      -0.040 -0.043 -0.042  0.023  0.168

     Number of occupied Hubbard levels =    5.7206

     negative rho (up, down):  1.596E-04 3.439E-03

     HUBBARD ENERGY =    0.3689  (Ry)

     total cpu time spent up to now is     1008.2 secs

     total energy              =   -1018.64234704 Ry
     estimated scf accuracy    <       0.21338490 Ry

     total magnetization       =     3.00 Bohr mag/cell
     absolute magnetization    =     3.76 Bohr mag/cell
[tb_dev] Currently allocated     0.00E+00 Mbytes, locked:    0 /   0
[tb_pin] Currently allocated     0.00E+00 Mbytes, locked:    0 /   0

     iteration #  7     ecut=    50.00 Ry     beta= 0.10
     CG style diagonalization

---- Real-time Memory Report at c_bands before calling an iterative solver
          6433 MiB given to the printing process from OS
             0 MiB allocation reported by mallinfo(arena+hblkhd)
        485825 MiB available memory on the node where the printing process lives
     GPU memory used/free/total (MiB): 2742 / 62202 / 64944
------------------
     c_bands:  1 eigenvalues not converged
     c_bands:  1 eigenvalues not converged
     c_bands:  1 eigenvalues not converged
     ethr =  1.54E-04,  avg # of iterations =  3.0

     =================== HUBBARD OCCUPATIONS ===================
     ------------------------ ATOM    2 ------------------------
     Tr[ns(  2)] (up, down, total) =   2.57860  0.53586  3.11446
     Atomic magnetic moment for atom   2 =   2.04274
     SPIN  1
     eigenvalues:
       0.137  0.207  0.250  0.991  0.993
     eigenvectors (columns):
       0.262  0.098 -0.407  0.769 -0.405
       0.251 -0.218  0.801  0.110 -0.486
       0.669  0.683  0.027 -0.292  0.018
      -0.541  0.438 -0.077 -0.262 -0.664
      -0.358  0.533  0.432  0.492  0.398
     occupation matrix ns (before diag.):
       0.802  0.202 -0.194  0.065  0.169
       0.202  0.425 -0.043  0.238 -0.089
      -0.194 -0.043  0.243  0.076 -0.090
       0.065  0.238  0.076  0.588 -0.324
       0.169 -0.089 -0.090 -0.324  0.521
     SPIN  2
     eigenvalues:
       0.044  0.056  0.083  0.160  0.193
     eigenvectors (columns):
       0.584  0.648  0.297 -0.065 -0.382
       0.496 -0.087  0.278  0.180  0.798
      -0.119 -0.275  0.650 -0.697 -0.024
       0.582 -0.388 -0.543 -0.449 -0.114
      -0.242  0.589 -0.341 -0.524  0.452
     occupation matrix ns (before diag.):
       0.075 -0.044  0.012  0.000 -0.021
      -0.044  0.146 -0.010 -0.028  0.039
       0.012 -0.010  0.118  0.024  0.030
       0.000 -0.028  0.024  0.083  0.024
      -0.021  0.039  0.030  0.024  0.115
     ------------------------ ATOM    3 ------------------------
     Tr[ns(  3)] (up, down, total) =   2.00220  0.79268  2.79487
     Atomic magnetic moment for atom   3 =   1.20952
     SPIN  1
     eigenvalues:
       0.199  0.223  0.277  0.313  0.989
     eigenvectors (columns):
      -0.398 -0.298  0.296  0.197  0.791
       0.568  0.259  0.595  0.505  0.035
      -0.067  0.577 -0.600  0.465  0.293
      -0.509  0.676  0.439 -0.286 -0.095
       0.506  0.231 -0.072 -0.639  0.527
     occupation matrix ns (before diag.):
       0.707  0.045  0.176 -0.060  0.312
       0.045  0.259  0.011  0.005 -0.024
       0.176  0.011  0.328 -0.048  0.095
      -0.060  0.005 -0.048  0.242 -0.017
       0.312 -0.024  0.095 -0.017  0.467
     SPIN  2
     eigenvalues:
       0.082  0.114  0.125  0.221  0.252
     eigenvectors (columns):
      -0.804 -0.484 -0.057  0.197 -0.277
      -0.088  0.638 -0.001  0.655 -0.396
      -0.260  0.357  0.472 -0.637 -0.421
       0.057 -0.198  0.878  0.352  0.249
      -0.524  0.437 -0.050 -0.058  0.727
     occupation matrix ns (before diag.):
       0.108  0.027 -0.004 -0.001 -0.042
       0.027  0.181 -0.022  0.011 -0.045
      -0.004 -0.022  0.182 -0.033 -0.043
      -0.001  0.011 -0.033  0.144  0.023
      -0.042 -0.045 -0.043  0.023  0.178

     Number of occupied Hubbard levels =    5.9093

     negative rho (up, down):  1.404E-04 3.921E-03

     HUBBARD ENERGY =    0.3629  (Ry)

     total cpu time spent up to now is     1153.7 secs

     WARNING: integrated charge=   139.00166901, expected=   139.00000000

     total energy              =   -1018.65289944 Ry
     estimated scf accuracy    <       0.09087196 Ry

     total magnetization       =     3.01 Bohr mag/cell
     absolute magnetization    =     3.75 Bohr mag/cell
[tb_dev] Currently allocated     0.00E+00 Mbytes, locked:    0 /   0
[tb_pin] Currently allocated     0.00E+00 Mbytes, locked:    0 /   0

     iteration #  8     ecut=    50.00 Ry     beta= 0.10
     CG style diagonalization

---- Real-time Memory Report at c_bands before calling an iterative solver
          6440 MiB given to the printing process from OS
             0 MiB allocation reported by mallinfo(arena+hblkhd)
        485817 MiB available memory on the node where the printing process lives
     GPU memory used/free/total (MiB): 2742 / 62202 / 64944
------------------
     c_bands:  1 eigenvalues not converged
     c_bands:  1 eigenvalues not converged
     c_bands:  1 eigenvalues not converged
     c_bands:  1 eigenvalues not converged
     c_bands:  1 eigenvalues not converged
     c_bands:  1 eigenvalues not converged
     c_bands:  1 eigenvalues not converged
     c_bands:  1 eigenvalues not converged
     c_bands:  1 eigenvalues not converged
     c_bands:  1 eigenvalues not converged
     c_bands:  1 eigenvalues not converged
     c_bands:  1 eigenvalues not converged
     c_bands:  1 eigenvalues not converged
     c_bands:  1 eigenvalues not converged
     c_bands:  1 eigenvalues not converged
     c_bands:  1 eigenvalues not converged
     c_bands:  1 eigenvalues not converged
     c_bands:  1 eigenvalues not converged
     c_bands:  1 eigenvalues not converged
     c_bands:  1 eigenvalues not converged
     c_bands:  1 eigenvalues not converged
     c_bands:  1 eigenvalues not converged
     c_bands:  1 eigenvalues not converged
     c_bands:  1 eigenvalues not converged
     c_bands:  1 eigenvalues not converged
     c_bands:  1 eigenvalues not converged
     c_bands:  1 eigenvalues not converged
     c_bands:  1 eigenvalues not converged
     c_bands:  1 eigenvalues not converged
     c_bands:  1 eigenvalues not converged
     c_bands:  1 eigenvalues not converged
     c_bands:  1 eigenvalues not converged
     c_bands:  2 eigenvalues not converged
     c_bands:  2 eigenvalues not converged
     c_bands:  1 eigenvalues not converged
     c_bands:  1 eigenvalues not converged
     c_bands:  2 eigenvalues not converged
     c_bands:  1 eigenvalues not converged
     c_bands:  2 eigenvalues not converged
     c_bands:  1 eigenvalues not converged
     c_bands:  2 eigenvalues not converged
     c_bands:  1 eigenvalues not converged
     c_bands:  2 eigenvalues not converged
     c_bands:  1 eigenvalues not converged
     c_bands:  1 eigenvalues not converged
     c_bands:  1 eigenvalues not converged
     c_bands:  1 eigenvalues not converged
     c_bands:  1 eigenvalues not converged
     c_bands:  1 eigenvalues not converged
     c_bands:  1 eigenvalues not converged
     c_bands:  1 eigenvalues not converged
     c_bands:  1 eigenvalues not converged
     c_bands:  1 eigenvalues not converged
     c_bands:  1 eigenvalues not converged
     c_bands:  1 eigenvalues not converged
     c_bands:  1 eigenvalues not converged
     c_bands:  1 eigenvalues not converged
     c_bands:  1 eigenvalues not converged
     c_bands:  1 eigenvalues not converged
     c_bands:  1 eigenvalues not converged
     c_bands:  1 eigenvalues not converged
     c_bands:  1 eigenvalues not converged
     c_bands:  1 eigenvalues not converged
     c_bands:  1 eigenvalues not converged
     c_bands:  1 eigenvalues not converged
     c_bands:  1 eigenvalues not converged
     c_bands:  1 eigenvalues not converged
     c_bands:  1 eigenvalues not converged
     c_bands:  1 eigenvalues not converged
     c_bands:  1 eigenvalues not converged
     c_bands:  1 eigenvalues not converged
     ethr =  6.54E-05,  avg # of iterations =  3.5
     Minimization algorithm failed to find Fermi energy: reverting to bisection
     Possible cause: smearing is larger than the electronic band-gap.

     =================== HUBBARD OCCUPATIONS ===================
     ------------------------ ATOM    2 ------------------------
     Tr[ns(  2)] (up, down, total) =   2.61723  0.58551  3.20273
     Atomic magnetic moment for atom   2 =   2.03172
     SPIN  1
     eigenvalues:
       0.149  0.221  0.266  0.984  0.997
     eigenvectors (columns):
      -0.263  0.099 -0.404 -0.565  0.663
      -0.249 -0.229  0.802  0.072  0.487
      -0.671  0.681  0.036  0.263 -0.121
       0.539  0.439 -0.069  0.489  0.523
       0.358  0.530  0.432 -0.606 -0.190
     occupation matrix ns (before diag.):
       0.807  0.200 -0.189  0.070  0.162
       0.200  0.433 -0.042  0.231 -0.083
      -0.189 -0.042  0.253  0.075 -0.086
       0.070  0.231  0.075  0.595 -0.318
       0.162 -0.083 -0.086 -0.318  0.529
     SPIN  2
     eigenvalues:
       0.048  0.062  0.094  0.173  0.209
     eigenvectors (columns):
       0.592  0.646  0.297 -0.063 -0.374
       0.492 -0.096  0.272  0.186  0.800
      -0.117 -0.270  0.652 -0.699 -0.019
       0.579 -0.389 -0.545 -0.451 -0.112
      -0.240  0.590 -0.342 -0.519  0.456
     occupation matrix ns (before diag.):
       0.081 -0.047  0.013 -0.001 -0.023
      -0.047  0.159 -0.010 -0.031  0.042
       0.013 -0.010  0.130  0.025  0.032
      -0.001 -0.031  0.025  0.091  0.026
      -0.023  0.042  0.032  0.026  0.125
     ------------------------ ATOM    3 ------------------------
     Tr[ns(  3)] (up, down, total) =   2.12625  0.90148  3.02773
     Atomic magnetic moment for atom   3 =   1.22476
     SPIN  1
     eigenvalues:
       0.227  0.266  0.302  0.341  0.990
     eigenvectors (columns):
      -0.405 -0.298  0.307 -0.163  0.791
       0.587  0.186  0.573 -0.540  0.037
      -0.095  0.588 -0.569 -0.485  0.293
      -0.430  0.692  0.494  0.289 -0.091
       0.545  0.228 -0.098  0.603  0.527
     occupation matrix ns (before diag.):
       0.719  0.043  0.166 -0.057  0.302
       0.043  0.287  0.018  0.006 -0.025
       0.166  0.018  0.357 -0.042  0.094
      -0.057  0.006 -0.042  0.280 -0.015
       0.302 -0.025  0.094 -0.015  0.483
     SPIN  2
     eigenvalues:
       0.094  0.135  0.150  0.245  0.277
     eigenvectors (columns):
      -0.808 -0.482 -0.091 -0.185 -0.271
      -0.097  0.637  0.040 -0.633 -0.427
      -0.249  0.302  0.507  0.650 -0.410
       0.054 -0.250  0.856 -0.374  0.249
      -0.523  0.457 -0.019  0.054  0.717
     occupation matrix ns (before diag.):
       0.122  0.026 -0.007 -0.001 -0.046
       0.026  0.205 -0.021  0.012 -0.049
      -0.007 -0.021  0.207 -0.034 -0.043
      -0.001  0.012 -0.034  0.170  0.024
      -0.046 -0.049 -0.043  0.024  0.197

     Number of occupied Hubbard levels =    6.2305

     negative rho (up, down):  1.440E-04 3.884E-03

     HUBBARD ENERGY =    0.3653  (Ry)

     total cpu time spent up to now is     1334.1 secs

     WARNING: integrated charge=   139.00151608, expected=   139.00000000

     total energy              =   -1018.66256118 Ry
     estimated scf accuracy    <       0.01669004 Ry

     total magnetization       =     3.00 Bohr mag/cell
     absolute magnetization    =     3.74 Bohr mag/cell
[tb_dev] Currently allocated     0.00E+00 Mbytes, locked:    0 /   0
[tb_pin] Currently allocated     0.00E+00 Mbytes, locked:    0 /   0

     iteration #  9     ecut=    50.00 Ry     beta= 0.10
     CG style diagonalization

---- Real-time Memory Report at c_bands before calling an iterative solver
          6457 MiB given to the printing process from OS
             0 MiB allocation reported by mallinfo(arena+hblkhd)
        485799 MiB available memory on the node where the printing process lives
     GPU memory used/free/total (MiB): 2742 / 62202 / 64944
------------------
     c_bands:  3 eigenvalues not converged
     c_bands:  1 eigenvalues not converged
     c_bands:  1 eigenvalues not converged
     c_bands:  1 eigenvalues not converged
     c_bands:  1 eigenvalues not converged
     c_bands:  2 eigenvalues not converged
     c_bands:  1 eigenvalues not converged
     c_bands:  1 eigenvalues not converged
     c_bands:  1 eigenvalues not converged
     c_bands:  3 eigenvalues not converged
     c_bands:  2 eigenvalues not converged
     c_bands:  1 eigenvalues not converged
     c_bands:  1 eigenvalues not converged
     c_bands:  1 eigenvalues not converged
     c_bands:  2 eigenvalues not converged
     c_bands:  1 eigenvalues not converged
     c_bands:  2 eigenvalues not converged
     c_bands:  1 eigenvalues not converged
[...]
     atom    3 type  4   force =     0.00000000    0.00000000    0.00000000
     atom    4 type  3   force =    -0.07098831   -0.06840814   -0.12023964
     atom    5 type  3   force =     0.07098831    0.06840814    0.12023964
     atom    6 type  3   force =     0.01428762    0.09502035   -0.12157832
     atom    7 type  3   force =    -0.01428762   -0.09502035    0.12157832
     atom    8 type  2   force =     0.37028571   -0.45042838    1.56982757
     atom    9 type  2   force =    -0.37028571    0.45042838   -1.56982757
     atom   10 type  2   force =     0.47595625    0.39100500   -1.57723511
     atom   11 type  2   force =    -0.47595625   -0.39100500    1.57723511
     atom   12 type  2   force =    -1.44746784    0.60467572    0.14603362
     atom   13 type  2   force =     1.44746784   -0.60467572   -0.14603362
     atom   14 type  2   force =     0.67947640   -0.63667564   -1.20155479
     atom   15 type  2   force =     1.12206363   -0.95045277    0.47099853
     atom   16 type  2   force =    -1.12206363    0.95045277   -0.47099853
     atom   17 type  2   force =     0.57094004    0.97737286   -0.74177215
     atom   18 type  2   force =    -0.57094004   -0.97737286    0.74177215
     atom   19 type  2   force =    -0.70315212    0.09298363   -1.09145071
     atom   20 type  2   force =     0.70315212   -0.09298363    1.09145071
     atom   21 type  2   force =    -0.67947640    0.63667564    1.20155479
     The ionic contribution  to forces
     atom    1 type  1   force =    -0.00000000   -0.00000000    0.00000000
     atom    2 type  4   force =    -0.00000000    0.00000000    0.00000000
     atom    3 type  4   force =     0.00000000   -0.00000000   -0.00000000
     atom    4 type  3   force =     0.72961829    1.04556949   -0.74229473
     atom    5 type  3   force =    -0.72961829   -1.04556949    0.74229473
     atom    6 type  3   force =    -0.11283833   -0.82400478    0.56881917
     atom    7 type  3   force =     0.11283833    0.82400478   -0.56881917
     atom    8 type  2   force =    -1.54860336    2.19711972   -7.21793330
     atom    9 type  2   force =     1.54860336   -2.19711972    7.21793330
     atom   10 type  2   force =    -0.04212014   -8.29801529    4.78561972
     atom   11 type  2   force =     0.04212014    8.29801529   -4.78561972
     atom   12 type  2   force =     2.35388204    0.64663699   -5.84752986
     atom   13 type  2   force =    -2.35388204   -0.64663699    5.84752986
     atom   14 type  2   force =     0.93626101    6.66620647    1.94363507
     atom   15 type  2   force =    -0.31912006    2.65540371   -7.38070514
     atom   16 type  2   force =     0.31912006   -2.65540371    7.38070514
     atom   17 type  2   force =    -4.61833826    1.17732168   -2.34701607
     atom   18 type  2   force =     4.61833826   -1.17732168    2.34701607
     atom   19 type  2   force =    -2.41221121   -5.40671468    1.85849118
     atom   20 type  2   force =     2.41221121    5.40671468   -1.85849118
     atom   21 type  2   force =    -0.93626101   -6.66620647   -1.94363507
     The local contribution  to forces
     atom    1 type  1   force =    -0.00000000    0.00000000   -0.00000000
     atom    2 type  4   force =     0.00000000    0.00000000    0.00000000
     atom    3 type  4   force =     0.00000000    0.00000000   -0.00000000
     atom    4 type  3   force =    -0.66501936   -0.98443724    0.85721801
     atom    5 type  3   force =     0.66501936    0.98443724   -0.85721801
     atom    6 type  3   force =     0.10031936    0.73604909   -0.45298627
     atom    7 type  3   force =    -0.10031936   -0.73604909    0.45298627
     atom    8 type  2   force =     1.18186054   -1.75087588    5.66093222
     atom    9 type  2   force =    -1.18186054    1.75087588   -5.66093222
     atom   10 type  2   force =    -0.42820956    7.90603286   -3.22280590
     atom   11 type  2   force =     0.42820956   -7.90603286    3.22280590
     atom   12 type  2   force =    -0.92150058   -1.24567319    5.69607043
     atom   13 type  2   force =     0.92150058    1.24567319   -5.69607043
     atom   14 type  2   force =    -1.60492912   -6.02983068   -0.75453634
     atom   15 type  2   force =    -0.79122090   -1.71294837    6.90825611
     atom   16 type  2   force =     0.79122090    1.71294837   -6.90825611
     atom   17 type  2   force =     4.04838136   -2.14398911    3.08086466
     atom   18 type  2   force =    -4.04838136    2.14398911   -3.08086466
     atom   19 type  2   force =     3.10304920    5.30877649   -0.77841718
     atom   20 type  2   force =    -3.10304920   -5.30877649    0.77841718
     atom   21 type  2   force =     1.60492912    6.02983068    0.75453634
     The core correction contribution to forces
     atom    1 type  1   force =     0.00000000    0.00000000    0.00000000
     atom    2 type  4   force =     0.00000000   -0.00000000   -0.00000000
     atom    3 type  4   force =     0.00000000    0.00000000   -0.00000000
     atom    4 type  3   force =     0.00618045    0.00589096    0.00718073
     atom    5 type  3   force =    -0.00618045   -0.00589096   -0.00718073
     atom    6 type  3   force =    -0.00152878   -0.00664671    0.00796066
     atom    7 type  3   force =     0.00152878    0.00664671   -0.00796066
     atom    8 type  2   force =    -0.00318095    0.00377340   -0.01322776
     atom    9 type  2   force =     0.00318095   -0.00377340    0.01322776
     atom   10 type  2   force =    -0.00337642   -0.00355676    0.01186552
     atom   11 type  2   force =     0.00337642    0.00355676   -0.01186552
     atom   12 type  2   force =     0.01093731   -0.00472241   -0.00173651
     atom   13 type  2   force =    -0.01093731    0.00472241    0.00173651
     atom   14 type  2   force =    -0.00505514    0.00529443    0.00913339
     atom   15 type  2   force =    -0.00848355    0.00738346   -0.00444813
     atom   16 type  2   force =     0.00848355   -0.00738346    0.00444813
     atom   17 type  2   force =    -0.00495820   -0.00696881    0.00545041
     atom   18 type  2   force =     0.00495820    0.00696881   -0.00545041
     atom   19 type  2   force =     0.00572097   -0.00068569    0.00873434
     atom   20 type  2   force =    -0.00572097    0.00068569   -0.00873434
     atom   21 type  2   force =     0.00505514   -0.00529443   -0.00913339
     The Hubbard contrib.    to forces
     atom    1 type  1   force =     0.00000000    0.00000000    0.00000000
     atom    2 type  4   force =     0.00000000    0.00000000    0.00000000
     atom    3 type  4   force =     0.00000000    0.00000000    0.00000000
     atom    4 type  3   force =    -0.00024770   -0.00014974    0.00035798
     atom    5 type  3   force =     0.00024770    0.00014974   -0.00035798
     atom    6 type  3   force =    -0.00008574    0.00010486   -0.00010319
     atom    7 type  3   force =     0.00008574   -0.00010486    0.00010319
     atom    8 type  2   force =     0.00001848    0.00000075    0.00003543
     atom    9 type  2   force =    -0.00001848   -0.00000075   -0.00003543
     atom   10 type  2   force =    -0.00161920    0.00493435    0.00198636
     atom   11 type  2   force =     0.00161920   -0.00493435   -0.00198636
     atom   12 type  2   force =     0.00353757   -0.00094844    0.00717008
     atom   13 type  2   force =    -0.00353757    0.00094844   -0.00717008
     atom   14 type  2   force =    -0.00523756   -0.00494674    0.00228483
     atom   15 type  2   force =    -0.00330042    0.00150896    0.00551324
     atom   16 type  2   force =     0.00330042   -0.00150896   -0.00551324
     atom   17 type  2   force =     0.00352260   -0.00511384    0.00391874
     atom   18 type  2   force =    -0.00352260    0.00511384   -0.00391874
     atom   19 type  2   force =     0.00744130    0.00642239    0.00240006
     atom   20 type  2   force =    -0.00744130   -0.00642239   -0.00240006
     atom   21 type  2   force =     0.00523756    0.00494674   -0.00228483
     The SCF correction term to forces
     atom    1 type  1   force =     0.00000000    0.00000000   -0.00000000
     atom    2 type  4   force =    -0.00000000   -0.00000000   -0.00000000
     atom    3 type  4   force =     0.00000000   -0.00000000   -0.00000000
     atom    4 type  3   force =     0.00000597    0.00000764    0.00000249
     atom    5 type  3   force =    -0.00000597   -0.00000764   -0.00000249
     atom    6 type  3   force =    -0.00000188   -0.00000798    0.00000547
     atom    7 type  3   force =     0.00000188    0.00000798   -0.00000547
     atom    8 type  2   force =     0.00000163    0.00000112   -0.00000784
     atom    9 type  2   force =    -0.00000163   -0.00000112    0.00000784
     atom   10 type  2   force =     0.00000577   -0.00003120    0.00000035
     atom   11 type  2   force =    -0.00000577    0.00003120   -0.00000035
     atom   12 type  2   force =    -0.00000907    0.00001326   -0.00001923
     atom   13 type  2   force =     0.00000907   -0.00001326    0.00001923
     atom   14 type  2   force =     0.00001266    0.00002788   -0.00000452
     atom   15 type  2   force =     0.00001855   -0.00000304   -0.00003589
     atom   16 type  2   force =    -0.00001855    0.00000304    0.00003589
     atom   17 type  2   force =    -0.00001626    0.00002357   -0.00003084
     atom   18 type  2   force =     0.00001626   -0.00002357    0.00003084
     atom   19 type  2   force =    -0.00002942   -0.00002220   -0.00001519
     atom   20 type  2   force =     0.00002942    0.00002220    0.00001519
     atom   21 type  2   force =    -0.00001266   -0.00002788    0.00000452

     Total force =     0.006584     Total SCF correction =     0.000125


     Computing stress (Cartesian axis) and pressure


     negative rho (up, down):  2.147E-04 3.534E-03
     stres_hub    :    261.00s CPU    263.80s WALL (       4 calls)
     dprojdepsilo :    210.32s CPU    212.84s WALL (   13680 calls)
     dprojdeps1   :     51.73s CPU     52.01s WALL (   13680 calls)
     dprojdeps2   :     85.63s CPU     86.77s WALL (   13680 calls)
     dprojdeps3   :     72.86s CPU     74.00s WALL (   13680 calls)
          total   stress  (Ry/bohr**3)                   (kbar)     P=        0.16
   0.00000164  -0.00000027   0.00000319            0.24       -0.04        0.47
  -0.00000027   0.00000485  -0.00000373           -0.04        0.71       -0.55
   0.00000319  -0.00000373  -0.00000313            0.47       -0.55       -0.46

     kinetic stress (kbar)  19850.92    -71.38    -63.68
                              -71.38  19862.70     55.83
                              -63.68     55.83  19859.89

     local   stress (kbar) -10782.72    403.84   1524.70
                              403.84  -7141.84  -3521.08
                             1524.70  -3521.08  -9833.21

     nonloc. stress (kbar)   -154.87    -35.17    -17.16
                              -35.17   -172.34      1.33
                              -17.16      1.33   -148.77

     hartree stress (kbar)   9707.84   -108.83   -659.10
                             -108.83   8151.46   1590.93
                             -659.10   1590.93   9190.78

     exc-cor stress (kbar)  -3278.05     -0.24      0.12
                               -0.24  -3278.57      0.19
                                0.12      0.19  -3277.62

     corecor stress (kbar)  -1296.97      3.42      1.56
                                3.42  -1294.22      0.21
                                1.56      0.21  -1297.65

     ewald   stress (kbar) -14036.49   -197.31   -789.73
                             -197.31 -16115.23   1873.46
                             -789.73   1873.46 -14480.43

     hubbard stress (kbar)     -9.42      5.62      3.76
                                5.62    -11.24     -1.42
                                3.76     -1.42    -13.44

     DFT-D   stress (kbar)      0.00      0.00      0.00
                                0.00      0.00      0.00
                                0.00      0.00      0.00

     XDM     stress (kbar)      0.00      0.00      0.00
                                0.00      0.00      0.00
                                0.00      0.00      0.00

     dft-nl  stress (kbar)      0.00      0.00      0.00
                                0.00      0.00      0.00
                                0.00      0.00      0.00

     TS-vdW  stress (kbar)      0.00      0.00      0.00
                                0.00      0.00      0.00
                                0.00      0.00      0.00

     MDB     stress (kbar)      0.00      0.00      0.00
                                0.00      0.00      0.00
                                0.00      0.00      0.00

     3D-RISM stress (kbar)      0.00      0.00      0.00
                                0.00      0.00      0.00
                                0.00      0.00      0.00

     Message from routine bfgs:
     history already reset at previous step: exiting
     Energy error            =      2.7E-04 Ry
     Gradient error          =      2.2E-03 Ry/Bohr
     Cell gradient error     =      7.1E-01 kbar

     bfgs failed after   4 scf cycles and   1 bfgs steps, convergence not achieved
     (criteria: energy <  2.1E-04 Ry, force <  1.0E-04 Ry/Bohr, cell <  5.0E-01 kbar)

     End of BFGS Geometry Optimization

     Final enthalpy           =   -1018.6754559453 Ry

     File ./out/aiida.bfgs deleted, as requested
Begin final coordinates
     new unit-cell volume =   1733.35609 a.u.^3 (   256.85687 Ang^3 )
     density =      3.05631 g/cm^3

CELL_PARAMETERS (angstrom)
   4.787415072  -0.020420356  -0.007576957
  -1.831208266   6.727809806   0.063194780
  -0.500500911  -0.267064910   7.982383595

ATOMIC_POSITIONS (crystal)
Na              -0.0000000000       -0.0000000000        0.5000000000
V                0.5000000000        0.5000000000        0.5000000000
V                0.0000000000        0.0000000000        0.0000000000
P                0.0097255930        0.6216644260        0.2523158959
P                0.9902744070        0.3783355740        0.7476841041
P                0.6185876141        0.2305509261        0.1997289995
P                0.3814123859        0.7694490739        0.8002710005
O                0.7808775393        0.4494583441        0.1402249218
O                0.2191224607        0.5505416559        0.8597750782
O                0.5320839820        0.2424714604        0.3785982575
O                0.4679160180        0.7575285396        0.6214017425
O                0.2702359024        0.5440326570        0.3002246872
O                0.7297640976        0.4559673430        0.6997753128
O                0.8542330791        0.6697104728        0.4031581158
O                0.1762812077        0.9053141769        0.8089345606
O                0.8237187923        0.0946858231        0.1910654394
O                0.9070858084        0.2017164130        0.8617912032
O                0.0929141916        0.7982835870        0.1382087968
O                0.6411296092        0.8304152923        0.9319347472
O                0.3588703908        0.1695847077        0.0680652528
O                0.1457669209        0.3302895272        0.5968418842
End final coordinates



     Writing config-only to output data dir ./out/aiida.save/ :
     XML data file

     Writing all to output data dir ./out/aiida.save/ :
     XML data file, charge density, pseudopotentials, collected wavefunctions
 
     init_run     :      9.56s CPU     11.23s WALL (       1 calls)
     electrons    :  18047.24s CPU  18293.68s WALL (       4 calls)
     update_pot   :      0.63s CPU      0.64s WALL (       3 calls)
     forces       :    124.39s CPU    125.98s WALL (       4 calls)
     stress       :    274.94s CPU    277.84s WALL (       4 calls)

     Called by init_run:
     wfcinit      :      7.81s CPU      9.37s WALL (       1 calls)
     wfcinit:atom :      0.53s CPU      0.54s WALL (     380 calls)
     wfcinit:wfcr :      3.66s CPU      3.68s WALL (     380 calls)
     potinit      :      0.29s CPU      0.33s WALL (       1 calls)
     hinit0       :      1.02s CPU      1.05s WALL (       1 calls)

     Called by electrons:
     c_bands      :  17620.71s CPU  17863.80s WALL (     104 calls)
     sum_band     :    402.18s CPU    404.39s WALL (     104 calls)
     v_of_rho     :      1.28s CPU      1.37s WALL (     105 calls)
     v_h          :      0.40s CPU      0.42s WALL (     105 calls)
     v_xc         :      0.94s CPU      1.01s WALL (     113 calls)
     newd         :      2.81s CPU      2.85s WALL (     105 calls)
     PAW_pot      :     14.78s CPU     14.92s WALL (     108 calls)
     mix_rho      :      3.24s CPU      3.46s WALL (     104 calls)

     Called by c_bands:
     init_us_2    :     53.81s CPU     54.15s WALL (   88160 calls)
     ccgdiagg     :  17079.45s CPU  17298.75s WALL (   39900 calls)
     wfcrot       :    313.40s CPU    317.01s WALL (   37620 calls)
                                      316.86s GPU  (   37620 calls)

     Called by sum_band:
     sum_band:wei :      2.83s CPU      2.84s WALL (     104 calls)
     sum_band:loo :    257.72s CPU    258.90s WALL (     104 calls)
     sum_band:buf :     78.85s CPU     79.23s WALL (   39520 calls)
     sum_band:ini :     23.95s CPU     24.08s WALL (   39520 calls)
     sum_band:cal :      1.47s CPU      1.48s WALL (   40660 calls)
     sum_band:bec :     36.50s CPU     36.80s WALL (   40660 calls)
     addusdens    :      5.97s CPU      6.21s WALL (     104 calls)
                                        6.21s GPU  (     104 calls)
     addusd:skk   :      0.06s CPU      0.06s WALL (     416 calls)
                                        0.06s GPU  (     416 calls)

     Called by *cgdiagg:
     h_psi        :   6425.25s CPU   6535.23s WALL ( 8243237 calls)
     s_psi        :   8111.46s CPU   8205.28s WALL (16456454 calls)

     Called by h_psi:
     h_psi:calbec :    117.33s CPU    118.99s WALL ( 8243237 calls)
     vloc_psi     :   2039.60s CPU   2140.58s WALL ( 8243237 calls)
                                     2088.68s GPU  ( 8243237 calls)
     add_vuspsi   :   3295.74s CPU   3357.48s WALL ( 8243237 calls)
     vhpsi        :    734.04s CPU    749.50s WALL ( 8243237 calls)
     hs_1psi      :  10230.59s CPU  10672.41s WALL ( 8205617 calls)
                                    10622.05s GPU  ( 8205617 calls)
     s_1psi       :   4293.44s CPU   4586.77s WALL ( 8205617 calls)
                                     4536.36s GPU  ( 8205617 calls)

     General routines
     calbec       :    355.61s CPU    363.01s WALL (27886751 calls)
     fft          :      1.36s CPU      1.48s WALL (    2786 calls)
                                        0.12s GPU  (    2576 calls)
     ffts         :      0.43s CPU      0.43s WALL (     418 calls)
                                        0.01s GPU  (     208 calls)
     fftw         :    134.20s CPU    737.06s WALL (17100554 calls)
                                      633.73s GPU  (17100554 calls)
     interpolate  :      2.05s CPU      2.07s WALL (     210 calls)
     davcio       :      0.09s CPU      5.48s WALL (     380 calls)
 
     Parallel routines

     Hubbard U routines
     new_ns       :    133.24s CPU    133.91s WALL (     104 calls)
     vhpsi        :    734.04s CPU    749.50s WALL ( 8243237 calls)
     force_hub    :    115.92s CPU    117.41s WALL (       4 calls)
     stres_hub    :    261.00s CPU    263.80s WALL (       4 calls)

     PAW routines
     PAW_pot      :     14.78s CPU     14.92s WALL (     108 calls)
     PAW_symme    :      0.01s CPU      0.01s WALL (     212 calls)
 
     PWSCF        :      5h 7m CPU      5h12m WALL

 
   This run was terminated on:   3: 3:45  10Nov2025            

=------------------------------------------------------------------------------=
   JOB DONE.
=------------------------------------------------------------------------------=
