
     Program PWSCF v.7.4.1 starts on 15Oct2025 at 10:25:52 

     This program is part of the open-source Quantum ESPRESSO suite
     for quantum simulation of materials; please cite
         "P. Giannozzi et al., J. Phys.:Condens. Matter 21 395502 (2009);
         "P. Giannozzi et al., J. Phys.:Condens. Matter 29 465901 (2017);
         "P. Giannozzi et al., J. Chem. Phys. 152 154105 (2020);
          URL http://www.quantum-espresso.org", 
     in publications or presentations arising from this work. More details at
     http://www.quantum-espresso.org/quote

     Parallel version (MPI & OpenMP), running on       1 processor cores
     Number of MPI processes:                 1
     Threads/MPI process:                     1

     MPI processes distributed on     1 nodes
     427753 MiB available memory on the printing compute node when the environment starts
 
     Reading input from pwscf.in
Warning: card &FCP ignored
Warning: card &RISM ignored

     Current dimensions of program PWSCF are:
     Max number of different atomic species (ntypx) = 10
     Max number of k-points (npk) =  40000
     Max angular momentum in pseudopotentials (lmaxx) =  4
 check tnoseh fnoseh  F    1.000000000000000     
 
     Subspace diagonalization in iterative solution of the eigenvalue problem:
     a serial algorithm will be used

 
     G-vector sticks info
     --------------------
     sticks:   dense  smooth     PW     G-vecs:    dense   smooth      PW
     Sum        8141    4065   1161               444949   157259   24265
 
     Using Slab Decomposition
 


     bravais-lattice index     =            0
     lattice parameter (alat)  =      11.2903  a.u.
     unit-cell volume          =    2505.3928 (a.u.)^3
     number of atoms/cell      =           15
     number of atomic types    =            2
     number of electrons       =       120.00
     number of Kohn-Sham states=           72
     kinetic-energy cutoff     =      60.0000  Ry
     charge density cutoff     =     480.0000  Ry
     scf convergence threshold =      3.4E-09
     mixing beta               =       0.7000
     number of iterations used =            8  plain     mixing
     energy convergence thresh.=      1.7E-04
     force convergence thresh. =      1.0E-04
     press convergence thresh. =      5.0E-01
     Exchange-correlation= SLA  PW   PSX  PSC
                           (   1   4  10   8   0   0   0)
     nstep                     =          180


     GPU acceleration is ACTIVE.  1 visible GPUs per MPI rank
     GPU-aware MPI enabled


     GPU used by master process:

        Device Number: 0
        Device name: NVIDIA A100-SXM-64GB
        Compute capability : 80
        Ratio of single to double precision performance  : 2
        Memory Clock Rate (KHz): 1593000
        Memory Bus Width (bits): 4096
        Peak Memory Bandwidth (GB/s): ******
     Hubbard projectors: ortho-atomic
     Hubbard parameters of DFT+U (Dudarev formulation) in eV:
     U(Ti-3d) =  4.7000

     Internal variables: lda_plus_u = T, lda_plus_u_kind = 0

     celldm(1)=  11.290278  celldm(2)=   0.000000  celldm(3)=   0.000000
     celldm(4)=   0.000000  celldm(5)=   0.000000  celldm(6)=   0.000000

     crystal axes: (cart. coord. in units of alat)
               a(1) = (   1.000000  -0.000198   0.000552 )  
               a(2) = (   0.003805   1.668701  -0.072504 )  
               a(3) = (   0.502848   0.715662   1.012415 )  

     reciprocal axes: (cart. coord. in units 2 pi/alat)
               b(1) = (  1.000261 -0.023156 -0.480443 )  
               b(2) = (  0.000342  0.581403 -0.411156 )  
               b(3) = ( -0.000521  0.041650  0.958554 )  


     PseudoPot. # 1 for S  read from file:
     /leonardo_scratch/large/userexternal/nalghamd/mc_mace/GNoME-screening/2_space_group_DFT/pseudo_SSSP1.3_aiida/s_pbesol_v1.4.uspp.F.UPF
     MD5 check sum: 0ccfa86ec6eb59065d10aaae963ef2a7
     Pseudo is Ultrasoft + core correction, Zval =  6.0
     Generated by new atomic code, or converted to UPF format
     Using radial grid of  907 points,  6 beta functions with: 
                l(1) =   0
                l(2) =   0
                l(3) =   1
                l(4) =   1
                l(5) =   2
                l(6) =   2
     Q(r) pseudized with  8 coefficients,  rinner =    1.300   1.300   1.300
                                                       1.300   1.300

     PseudoPot. # 2 for Ti read from file:
     /leonardo_scratch/large/userexternal/nalghamd/mc_mace/GNoME-screening/2_space_group_DFT/pseudo_SSSP1.3_aiida/ti_pbesol_v1.4.uspp.F.UPF
     MD5 check sum: 193cf2c0c3c6a4da613d69453fa7e3e9
     Pseudo is Ultrasoft + core correction, Zval = 12.0
     Generated by new atomic code, or converted to UPF format
     Using radial grid of  851 points,  6 beta functions with: 
                l(1) =   0
                l(2) =   0
                l(3) =   1
                l(4) =   1
                l(5) =   2
                l(6) =   2
     Q(r) pseudized with  6 coefficients,  rinner =    1.000   1.000   1.000
                                                       1.000   1.000

     atomic species   valence    mass     pseudopotential
     S                 6.00    32.06500     S ( 1.00)
     Ti               12.00    47.86700     Ti( 1.00)

     Starting magnetic structure 
     atomic species   magnetization
     S               0.100
     Ti              0.100

     No symmetry found


                                    s                        frac. trans.

      isym =  1     identity                                     

 cryst.   s( 1) = (     1          0          0      )
                  (     0          1          0      )
                  (     0          0          1      )

 cart.    s( 1) = (  1.0000000 -0.0000000 -0.0000000 )
                  (  0.0000000  1.0000000 -0.0000000 )
                  (  0.0000000  0.0000000  1.0000000 )


   Cartesian axes

     site n.     atom                  positions (alat units)
         1        Ti     tau(   1) = (   0.5036136   1.4780139   0.1447013  )
         2        Ti     tau(   2) = (   1.0060522   1.2917394   0.3662028  )
         3        Ti     tau(   3) = (   0.5053602   1.0997863   0.5808148  )
         4        Ti     tau(   4) = (   1.0009107   0.9032032   0.7935061  )
         5        Ti     tau(   5) = (   1.5002184   0.7110519   1.0086701  )
         6        S      tau(   6) = (   1.1698904   1.6564899   0.2960741  )
         7        S      tau(   7) = (   0.6663162   0.1739589   0.1520297  )
         8        S      tau(   8) = (   0.6699638   1.0783571   0.9512701  )
         9        S      tau(   9) = (   1.1693194   1.2723490   0.7382886  )
        10        S      tau(  10) = (   0.6700836   1.4675094   0.5176815  )
        11        S      tau(  11) = (   0.8399918   2.2041816   0.7841357  )
        12        S      tau(  12) = (   0.3369513   0.7306398   0.6360333  )
        13        S      tau(  13) = (   0.8363072   0.9246309   0.4230514  )
        14        S      tau(  14) = (   0.3371065   1.1133680   0.2098755  )
        15        S      tau(  15) = (   0.8373366   1.2993414  -0.0061208  )

   Crystallographic axes

     site n.     atom                  positions (cryst. coord.)
         1        Ti     tau(   1) = (  0.3999998  0.7999997  0.2000002  )
         2        Ti     tau(   2) = (  0.8004639  0.6007994  0.4043014  )
         3        Ti     tau(   3) = (  0.2009772  0.4007870  0.6022848  )
         4        Ti     tau(   4) = (  0.5990229  0.1992132  0.7977152  )
         5        Ti     tau(   5) = (  0.9995362 -0.0007992  0.9956984  )
         6        S      tau(   6) = (  0.9895917  0.8417564  0.3521855  )
         7        S      tau(   7) = (  0.5894202  0.0388604  0.1526269  )
         8        S      tau(   8) = (  0.1881372  0.2360695  0.9564081  )
         9        S      tau(   9) = (  0.7854566  0.4365964  0.7600732  )
        10        S      tau(  10) = (  0.3875607  0.6405964  0.5569978  )
        11        S      tau(  11) = (  0.4124389  0.9594040  0.8430022  )
        12        S      tau(  12) = (  0.0145428  0.1634029  0.6399278  )
        13        S      tau(  13) = (  0.6118628  0.3639296  0.4435925  )
        14        S      tau(  14) = (  0.2105804  0.5611397  0.2473727  )
        15        S      tau(  15) = (  0.8104086  0.7582445  0.0478134  )

     number of k points=   170  Marzari-Vanderbilt smearing, width (Ry)=  0.0200
                       cart. coord. in units 2pi/alat
        k(    1) = (   0.0000000   0.0000000   0.0000000), wk =   0.0029762
        k(    2) = (  -0.0000744   0.0059499   0.1369364), wk =   0.0059524
        k(    3) = (  -0.0001489   0.0118999   0.2738727), wk =   0.0059524
        k(    4) = (  -0.0002233   0.0178498   0.4108091), wk =   0.0059524
        k(    5) = (   0.0000570   0.0969006  -0.0685260), wk =   0.0059524
        k(    6) = (  -0.0000174   0.1028505   0.0684104), wk =   0.0059524
        k(    7) = (  -0.0000919   0.1088004   0.2053467), wk =   0.0059524
        k(    8) = (  -0.0001663   0.1147504   0.3422831), wk =   0.0059524
        k(    9) = (   0.0002804   0.0790508  -0.4793350), wk =   0.0059524
        k(   10) = (   0.0002059   0.0850007  -0.3423987), wk =   0.0059524
        k(   11) = (   0.0001315   0.0909506  -0.2054623), wk =   0.0059524
        k(   12) = (   0.0001141   0.1938011  -0.1370519), wk =   0.0059524
        k(   13) = (   0.0000396   0.1997510  -0.0001156), wk =   0.0059524
        k(   14) = (  -0.0000348   0.2057010   0.1368208), wk =   0.0059524
        k(   15) = (  -0.0001093   0.2116509   0.2737571), wk =   0.0059524
        k(   16) = (   0.0003374   0.1759513  -0.5478610), wk =   0.0059524
        k(   17) = (   0.0002629   0.1819012  -0.4109246), wk =   0.0059524
        k(   18) = (   0.0001885   0.1878512  -0.2739883), wk =   0.0059524
        k(   19) = (  -0.0001711  -0.2907017   0.2055779), wk =   0.0029762
        k(   20) = (  -0.0002455  -0.2847517   0.3425142), wk =   0.0059524
        k(   21) = (  -0.0003200  -0.2788018   0.4794506), wk =   0.0059524
        k(   22) = (  -0.0003944  -0.2728519   0.6163869), wk =   0.0059524
        k(   23) = (   0.1250326  -0.0028945  -0.0600554), wk =   0.0059524
        k(   24) = (   0.1249582   0.0030555   0.0768810), wk =   0.0059524
        k(   25) = (   0.1248837   0.0090054   0.2138173), wk =   0.0059524
        k(   26) = (   0.1248093   0.0149553   0.3507537), wk =   0.0059524
        k(   27) = (   0.1252560  -0.0207443  -0.4708645), wk =   0.0059524
        k(   28) = (   0.1251815  -0.0147943  -0.3339281), wk =   0.0059524
        k(   29) = (   0.1251071  -0.0088444  -0.1969918), wk =   0.0059524
        k(   30) = (   0.1250896   0.0940061  -0.1285814), wk =   0.0059524
        k(   31) = (   0.1250152   0.0999560   0.0083550), wk =   0.0059524
        k(   32) = (   0.1249407   0.1059060   0.1452913), wk =   0.0059524
        k(   33) = (   0.1248663   0.1118559   0.2822277), wk =   0.0059524
        k(   34) = (   0.1253130   0.0761563  -0.5393904), wk =   0.0059524
        k(   35) = (   0.1252385   0.0821062  -0.4024541), wk =   0.0059524
        k(   36) = (   0.1251641   0.0880562  -0.2655177), wk =   0.0059524
        k(   37) = (   0.1251467   0.1909066  -0.1971073), wk =   0.0059524
        k(   38) = (   0.1250722   0.1968566  -0.0601710), wk =   0.0059524
        k(   39) = (   0.1249978   0.2028065   0.0767654), wk =   0.0059524
        k(   40) = (   0.1249233   0.2087564   0.2137017), wk =   0.0059524
        k(   41) = (   0.1253700   0.1730568  -0.6079164), wk =   0.0059524
        k(   42) = (   0.1252956   0.1790068  -0.4709800), wk =   0.0059524
        k(   43) = (   0.1252211   0.1849567  -0.3340437), wk =   0.0059524
        k(   44) = (   0.1248615  -0.2935961   0.1455225), wk =   0.0059524
        k(   45) = (   0.1247871  -0.2876462   0.2824588), wk =   0.0059524
        k(   46) = (   0.1247126  -0.2816963   0.4193952), wk =   0.0059524
        k(   47) = (   0.1246382  -0.2757463   0.5563315), wk =   0.0059524
        k(   48) = (   0.1250849  -0.3114459  -0.2652866), wk =   0.0059524
        k(   49) = (   0.1250104  -0.3054960  -0.1283502), wk =   0.0059524
        k(   50) = (   0.1249360  -0.2995461   0.0085861), wk =   0.0059524
        k(   51) = (   0.1249186  -0.1966956   0.0769965), wk =   0.0059524
        k(   52) = (   0.1248441  -0.1907456   0.2139329), wk =   0.0059524
        k(   53) = (   0.1247697  -0.1847957   0.3508692), wk =   0.0059524
        k(   54) = (   0.1246952  -0.1788458   0.4878056), wk =   0.0059524
        k(   55) = (   0.1251419  -0.2145454  -0.3338125), wk =   0.0059524
        k(   56) = (   0.1250675  -0.2085954  -0.1968762), wk =   0.0059524
        k(   57) = (   0.1249930  -0.2026455  -0.0599398), wk =   0.0059524
        k(   58) = (   0.1249756  -0.0997950   0.0084706), wk =   0.0059524
        k(   59) = (   0.1249011  -0.0938451   0.1454069), wk =   0.0059524
        k(   60) = (   0.1248267  -0.0878952   0.2823433), wk =   0.0059524
        k(   61) = (   0.1247522  -0.0819452   0.4192796), wk =   0.0059524
        k(   62) = (   0.1251989  -0.1176448  -0.4023385), wk =   0.0059524
        k(   63) = (   0.1251245  -0.1116949  -0.2654022), wk =   0.0059524
        k(   64) = (   0.1250500  -0.1057450  -0.1284658), wk =   0.0059524
        k(   65) = (   0.2500652  -0.0057889  -0.1201108), wk =   0.0059524
        k(   66) = (   0.2499908   0.0001610   0.0168256), wk =   0.0059524
        k(   67) = (   0.2499163   0.0061109   0.1537619), wk =   0.0059524
        k(   68) = (   0.2498419   0.0120609   0.2906983), wk =   0.0059524
        k(   69) = (   0.2502886  -0.0236387  -0.5309199), wk =   0.0059524
        k(   70) = (   0.2502141  -0.0176888  -0.3939835), wk =   0.0059524
        k(   71) = (   0.2501397  -0.0117389  -0.2570472), wk =   0.0059524
        k(   72) = (   0.2501223   0.0911116  -0.1886368), wk =   0.0059524
        k(   73) = (   0.2500478   0.0970616  -0.0517004), wk =   0.0059524
        k(   74) = (   0.2499734   0.1030115   0.0852359), wk =   0.0059524
        k(   75) = (   0.2498989   0.1089614   0.2221723), wk =   0.0059524
        k(   76) = (   0.2503456   0.0732618  -0.5994458), wk =   0.0059524
        k(   77) = (   0.2502712   0.0792118  -0.4625095), wk =   0.0059524
        k(   78) = (   0.2501967   0.0851617  -0.3255731), wk =   0.0059524
        k(   79) = (   0.2501793   0.1880122  -0.2571627), wk =   0.0059524
        k(   80) = (   0.2501048   0.1939621  -0.1202264), wk =   0.0059524
        k(   81) = (   0.2500304   0.1999120   0.0167100), wk =   0.0059524
        k(   82) = (   0.2499559   0.2058620   0.1536463), wk =   0.0059524
        k(   83) = (   0.2504026   0.1701624  -0.6679718), wk =   0.0059524
        k(   84) = (   0.2503282   0.1761123  -0.5310354), wk =   0.0059524
        k(   85) = (   0.2502537   0.1820622  -0.3940991), wk =   0.0059524
        k(   86) = (   0.2498942  -0.2964906   0.0854671), wk =   0.0059524
        k(   87) = (   0.2498197  -0.2905407   0.2224034), wk =   0.0059524
        k(   88) = (   0.2497453  -0.2845907   0.3593398), wk =   0.0059524
        k(   89) = (   0.2496708  -0.2786408   0.4962761), wk =   0.0059524
        k(   90) = (   0.2501175  -0.3143404  -0.3253420), wk =   0.0059524
        k(   91) = (   0.2500431  -0.3083905  -0.1884056), wk =   0.0059524
        k(   92) = (   0.2499686  -0.3024405  -0.0514693), wk =   0.0059524
        k(   93) = (   0.2499512  -0.1995900   0.0169411), wk =   0.0059524
        k(   94) = (   0.2498767  -0.1936401   0.1538775), wk =   0.0059524
        k(   95) = (   0.2498023  -0.1876902   0.2908138), wk =   0.0059524
        k(   96) = (   0.2497278  -0.1817402   0.4277502), wk =   0.0059524
        k(   97) = (   0.2501745  -0.2174398  -0.3938679), wk =   0.0059524
        k(   98) = (   0.2501001  -0.2114899  -0.2569316), wk =   0.0059524
        k(   99) = (   0.2500256  -0.2055400  -0.1199952), wk =   0.0059524
        k(  100) = (   0.2500082  -0.1026895  -0.0515848), wk =   0.0059524
        k(  101) = (   0.2499338  -0.0967395   0.0853515), wk =   0.0059524
        k(  102) = (   0.2498593  -0.0907896   0.2222879), wk =   0.0059524
        k(  103) = (   0.2497849  -0.0848397   0.3592242), wk =   0.0059524
        k(  104) = (   0.2502316  -0.1205393  -0.4623939), wk =   0.0059524
        k(  105) = (   0.2501571  -0.1145893  -0.3254576), wk =   0.0059524
        k(  106) = (   0.2500827  -0.1086394  -0.1885212), wk =   0.0059524
        k(  107) = (   0.3750978  -0.0086834  -0.1801662), wk =   0.0059524
        k(  108) = (   0.3750234  -0.0027335  -0.0432299), wk =   0.0059524
        k(  109) = (   0.3749489   0.0032165   0.0937065), wk =   0.0059524
        k(  110) = (   0.3748745   0.0091664   0.2306429), wk =   0.0059524
        k(  111) = (   0.3753212  -0.0265332  -0.5909753), wk =   0.0059524
        k(  112) = (   0.3752467  -0.0205833  -0.4540389), wk =   0.0059524
        k(  113) = (   0.3751723  -0.0146333  -0.3171026), wk =   0.0059524
        k(  114) = (   0.3751549   0.0882172  -0.2486922), wk =   0.0059524
        k(  115) = (   0.3750804   0.0941671  -0.1117558), wk =   0.0059524
        k(  116) = (   0.3750060   0.1001170   0.0251805), wk =   0.0059524
        k(  117) = (   0.3749315   0.1060670   0.1621169), wk =   0.0059524
        k(  118) = (   0.3753782   0.0703674  -0.6595012), wk =   0.0059524
        k(  119) = (   0.3753038   0.0763173  -0.5225649), wk =   0.0059524
        k(  120) = (   0.3752293   0.0822672  -0.3856285), wk =   0.0059524
        k(  121) = (   0.3752119   0.1851177  -0.3172181), wk =   0.0059524
        k(  122) = (   0.3751374   0.1910676  -0.1802818), wk =   0.0059524
        k(  123) = (   0.3750630   0.1970176  -0.0433454), wk =   0.0059524
        k(  124) = (   0.3749886   0.2029675   0.0935909), wk =   0.0059524
        k(  125) = (   0.3754352   0.1672679  -0.7280272), wk =   0.0059524
        k(  126) = (   0.3753608   0.1732179  -0.5910908), wk =   0.0059524
        k(  127) = (   0.3752863   0.1791678  -0.4541545), wk =   0.0059524
        k(  128) = (   0.3749268  -0.2993851   0.0254117), wk =   0.0059524
        k(  129) = (   0.3748523  -0.2934351   0.1623480), wk =   0.0059524
        k(  130) = (   0.3747779  -0.2874852   0.2992844), wk =   0.0059524
        k(  131) = (   0.3747034  -0.2815353   0.4362207), wk =   0.0059524
        k(  132) = (   0.3751501  -0.3172349  -0.3853974), wk =   0.0059524
        k(  133) = (   0.3750757  -0.3112849  -0.2484610), wk =   0.0059524
        k(  134) = (   0.3750012  -0.3053350  -0.1115247), wk =   0.0059524
        k(  135) = (   0.3749838  -0.2024845  -0.0431143), wk =   0.0059524
        k(  136) = (   0.3749093  -0.1965346   0.0938221), wk =   0.0059524
        k(  137) = (   0.3748349  -0.1905846   0.2307584), wk =   0.0059524
        k(  138) = (   0.3747604  -0.1846347   0.3676948), wk =   0.0059524
        k(  139) = (   0.3752071  -0.2203343  -0.4539234), wk =   0.0059524
        k(  140) = (   0.3751327  -0.2143844  -0.3169870), wk =   0.0059524
        k(  141) = (   0.3750582  -0.2084344  -0.1800506), wk =   0.0059524
        k(  142) = (   0.3750408  -0.1055839  -0.1116402), wk =   0.0059524
        k(  143) = (   0.3749664  -0.0996340   0.0252961), wk =   0.0059524
        k(  144) = (   0.3748919  -0.0936841   0.1622325), wk =   0.0059524
        k(  145) = (   0.3748175  -0.0877341   0.2991688), wk =   0.0059524
        k(  146) = (   0.3752642  -0.1234337  -0.5224493), wk =   0.0059524
        k(  147) = (   0.3751897  -0.1174838  -0.3855130), wk =   0.0059524
        k(  148) = (   0.3751153  -0.1115339  -0.2485766), wk =   0.0059524
        k(  149) = (  -0.5001305   0.0115779   0.2402216), wk =   0.0029762
        k(  150) = (  -0.5002049   0.0175278   0.3771580), wk =   0.0059524
        k(  151) = (  -0.5002794   0.0234777   0.5140943), wk =   0.0059524
        k(  152) = (  -0.5003538   0.0294277   0.6510307), wk =   0.0059524
        k(  153) = (  -0.5000734   0.1084784   0.1716956), wk =   0.0059524
        k(  154) = (  -0.5001479   0.1144283   0.3086320), wk =   0.0059524
        k(  155) = (  -0.5002223   0.1203783   0.4455684), wk =   0.0059524
        k(  156) = (  -0.5002968   0.1263282   0.5825047), wk =   0.0059524
        k(  157) = (  -0.4998501   0.0906286  -0.2391134), wk =   0.0059524
        k(  158) = (  -0.4999245   0.0965785  -0.1021771), wk =   0.0059524
        k(  159) = (  -0.4999990   0.1025285   0.0347593), wk =   0.0059524
        k(  160) = (  -0.5000164   0.2053790   0.1031697), wk =   0.0059524
        k(  161) = (  -0.5000909   0.2113289   0.2401060), wk =   0.0059524
        k(  162) = (  -0.5001653   0.2172788   0.3770424), wk =   0.0059524
        k(  163) = (  -0.5002398   0.2232288   0.5139788), wk =   0.0059524
        k(  164) = (  -0.4997931   0.1875292  -0.3076394), wk =   0.0059524
        k(  165) = (  -0.4998675   0.1934791  -0.1707030), wk =   0.0059524
        k(  166) = (  -0.4999420   0.1994290  -0.0337667), wk =   0.0059524
        k(  167) = (  -0.5003015  -0.2791238   0.4457995), wk =   0.0029762
        k(  168) = (  -0.5003760  -0.2731739   0.5827358), wk =   0.0059524
        k(  169) = (  -0.5004504  -0.2672239   0.7196722), wk =   0.0059524
        k(  170) = (  -0.5005249  -0.2612740   0.8566085), wk =   0.0059524

                       cryst. coord.
        k(    1) = (   0.0000000   0.0000000   0.0000000), wk =   0.0029762
        k(    2) = (   0.0000000   0.0000000   0.1428571), wk =   0.0059524
        k(    3) = (   0.0000000   0.0000000   0.2857143), wk =   0.0059524
        k(    4) = (   0.0000000   0.0000000   0.4285714), wk =   0.0059524
        k(    5) = (   0.0000000   0.1666667  -0.0000000), wk =   0.0059524
        k(    6) = (   0.0000000   0.1666667   0.1428571), wk =   0.0059524
        k(    7) = (   0.0000000   0.1666667   0.2857143), wk =   0.0059524
        k(    8) = (   0.0000000   0.1666667   0.4285714), wk =   0.0059524
        k(    9) = (  -0.0000000   0.1666667  -0.4285714), wk =   0.0059524
        k(   10) = (  -0.0000000   0.1666667  -0.2857143), wk =   0.0059524
        k(   11) = (   0.0000000   0.1666667  -0.1428571), wk =   0.0059524
        k(   12) = (   0.0000000   0.3333333  -0.0000000), wk =   0.0059524
        k(   13) = (   0.0000000   0.3333333   0.1428571), wk =   0.0059524
        k(   14) = (   0.0000000   0.3333333   0.2857143), wk =   0.0059524
        k(   15) = (   0.0000000   0.3333333   0.4285714), wk =   0.0059524
        k(   16) = (  -0.0000000   0.3333333  -0.4285714), wk =   0.0059524
        k(   17) = (   0.0000000   0.3333333  -0.2857143), wk =   0.0059524
        k(   18) = (  -0.0000000   0.3333333  -0.1428571), wk =   0.0059524
        k(   19) = (  -0.0000000  -0.5000000   0.0000000), wk =   0.0029762
        k(   20) = (  -0.0000000  -0.5000000   0.1428571), wk =   0.0059524
        k(   21) = (  -0.0000000  -0.5000000   0.2857143), wk =   0.0059524
        k(   22) = (   0.0000000  -0.5000000   0.4285714), wk =   0.0059524
        k(   23) = (   0.1250000  -0.0000000  -0.0000000), wk =   0.0059524
        k(   24) = (   0.1250000   0.0000000   0.1428571), wk =   0.0059524
        k(   25) = (   0.1250000   0.0000000   0.2857143), wk =   0.0059524
        k(   26) = (   0.1250000   0.0000000   0.4285714), wk =   0.0059524
        k(   27) = (   0.1250000  -0.0000000  -0.4285714), wk =   0.0059524
        k(   28) = (   0.1250000  -0.0000000  -0.2857143), wk =   0.0059524
        k(   29) = (   0.1250000  -0.0000000  -0.1428571), wk =   0.0059524
        k(   30) = (   0.1250000   0.1666667  -0.0000000), wk =   0.0059524
        k(   31) = (   0.1250000   0.1666667   0.1428571), wk =   0.0059524
        k(   32) = (   0.1250000   0.1666667   0.2857143), wk =   0.0059524
        k(   33) = (   0.1250000   0.1666667   0.4285714), wk =   0.0059524
        k(   34) = (   0.1250000   0.1666667  -0.4285714), wk =   0.0059524
        k(   35) = (   0.1250000   0.1666667  -0.2857143), wk =   0.0059524
        k(   36) = (   0.1250000   0.1666667  -0.1428571), wk =   0.0059524
        k(   37) = (   0.1250000   0.3333333  -0.0000000), wk =   0.0059524
        k(   38) = (   0.1250000   0.3333333   0.1428571), wk =   0.0059524
        k(   39) = (   0.1250000   0.3333333   0.2857143), wk =   0.0059524
        k(   40) = (   0.1250000   0.3333333   0.4285714), wk =   0.0059524
        k(   41) = (   0.1250000   0.3333333  -0.4285714), wk =   0.0059524
        k(   42) = (   0.1250000   0.3333333  -0.2857143), wk =   0.0059524
        k(   43) = (   0.1250000   0.3333333  -0.1428571), wk =   0.0059524
        k(   44) = (   0.1250000  -0.5000000  -0.0000000), wk =   0.0059524
        k(   45) = (   0.1250000  -0.5000000   0.1428571), wk =   0.0059524
        k(   46) = (   0.1250000  -0.5000000   0.2857143), wk =   0.0059524
        k(   47) = (   0.1250000  -0.5000000   0.4285714), wk =   0.0059524
        k(   48) = (   0.1250000  -0.5000000  -0.4285714), wk =   0.0059524
        k(   49) = (   0.1250000  -0.5000000  -0.2857143), wk =   0.0059524
        k(   50) = (   0.1250000  -0.5000000  -0.1428571), wk =   0.0059524
        k(   51) = (   0.1250000  -0.3333333   0.0000000), wk =   0.0059524
        k(   52) = (   0.1250000  -0.3333333   0.1428571), wk =   0.0059524
        k(   53) = (   0.1250000  -0.3333333   0.2857143), wk =   0.0059524
        k(   54) = (   0.1250000  -0.3333333   0.4285714), wk =   0.0059524
        k(   55) = (   0.1250000  -0.3333333  -0.4285714), wk =   0.0059524
        k(   56) = (   0.1250000  -0.3333333  -0.2857143), wk =   0.0059524
        k(   57) = (   0.1250000  -0.3333333  -0.1428571), wk =   0.0059524
        k(   58) = (   0.1250000  -0.1666667   0.0000000), wk =   0.0059524
        k(   59) = (   0.1250000  -0.1666667   0.1428571), wk =   0.0059524
        k(   60) = (   0.1250000  -0.1666667   0.2857143), wk =   0.0059524
        k(   61) = (   0.1250000  -0.1666667   0.4285714), wk =   0.0059524
        k(   62) = (   0.1250000  -0.1666667  -0.4285714), wk =   0.0059524
        k(   63) = (   0.1250000  -0.1666667  -0.2857143), wk =   0.0059524
        k(   64) = (   0.1250000  -0.1666667  -0.1428571), wk =   0.0059524
        k(   65) = (   0.2500000  -0.0000000  -0.0000000), wk =   0.0059524
        k(   66) = (   0.2500000   0.0000000   0.1428571), wk =   0.0059524
        k(   67) = (   0.2500000   0.0000000   0.2857143), wk =   0.0059524
        k(   68) = (   0.2500000   0.0000000   0.4285714), wk =   0.0059524
        k(   69) = (   0.2500000  -0.0000000  -0.4285714), wk =   0.0059524
        k(   70) = (   0.2500000  -0.0000000  -0.2857143), wk =   0.0059524
        k(   71) = (   0.2500000  -0.0000000  -0.1428571), wk =   0.0059524
        k(   72) = (   0.2500000   0.1666667  -0.0000000), wk =   0.0059524
        k(   73) = (   0.2500000   0.1666667   0.1428571), wk =   0.0059524
        k(   74) = (   0.2500000   0.1666667   0.2857143), wk =   0.0059524
        k(   75) = (   0.2500000   0.1666667   0.4285714), wk =   0.0059524
        k(   76) = (   0.2500000   0.1666667  -0.4285714), wk =   0.0059524
        k(   77) = (   0.2500000   0.1666667  -0.2857143), wk =   0.0059524
        k(   78) = (   0.2500000   0.1666667  -0.1428571), wk =   0.0059524
        k(   79) = (   0.2500000   0.3333333  -0.0000000), wk =   0.0059524
        k(   80) = (   0.2500000   0.3333333   0.1428571), wk =   0.0059524
        k(   81) = (   0.2500000   0.3333333   0.2857143), wk =   0.0059524
        k(   82) = (   0.2500000   0.3333333   0.4285714), wk =   0.0059524
        k(   83) = (   0.2500000   0.3333333  -0.4285714), wk =   0.0059524
        k(   84) = (   0.2500000   0.3333333  -0.2857143), wk =   0.0059524
        k(   85) = (   0.2500000   0.3333333  -0.1428571), wk =   0.0059524
        k(   86) = (   0.2500000  -0.5000000  -0.0000000), wk =   0.0059524
        k(   87) = (   0.2500000  -0.5000000   0.1428571), wk =   0.0059524
        k(   88) = (   0.2500000  -0.5000000   0.2857143), wk =   0.0059524
        k(   89) = (   0.2500000  -0.5000000   0.4285714), wk =   0.0059524
        k(   90) = (   0.2500000  -0.5000000  -0.4285714), wk =   0.0059524
        k(   91) = (   0.2500000  -0.5000000  -0.2857143), wk =   0.0059524
        k(   92) = (   0.2500000  -0.5000000  -0.1428571), wk =   0.0059524
        k(   93) = (   0.2500000  -0.3333333   0.0000000), wk =   0.0059524
        k(   94) = (   0.2500000  -0.3333333   0.1428571), wk =   0.0059524
        k(   95) = (   0.2500000  -0.3333333   0.2857143), wk =   0.0059524
        k(   96) = (   0.2500000  -0.3333333   0.4285714), wk =   0.0059524
        k(   97) = (   0.2500000  -0.3333333  -0.4285714), wk =   0.0059524
        k(   98) = (   0.2500000  -0.3333333  -0.2857143), wk =   0.0059524
        k(   99) = (   0.2500000  -0.3333333  -0.1428571), wk =   0.0059524
        k(  100) = (   0.2500000  -0.1666667   0.0000000), wk =   0.0059524
        k(  101) = (   0.2500000  -0.1666667   0.1428571), wk =   0.0059524
        k(  102) = (   0.2500000  -0.1666667   0.2857143), wk =   0.0059524
        k(  103) = (   0.2500000  -0.1666667   0.4285714), wk =   0.0059524
        k(  104) = (   0.2500000  -0.1666667  -0.4285714), wk =   0.0059524
        k(  105) = (   0.2500000  -0.1666667  -0.2857143), wk =   0.0059524
        k(  106) = (   0.2500000  -0.1666667  -0.1428571), wk =   0.0059524
        k(  107) = (   0.3750000  -0.0000000  -0.0000000), wk =   0.0059524
        k(  108) = (   0.3750000  -0.0000000   0.1428571), wk =   0.0059524
        k(  109) = (   0.3750000   0.0000000   0.2857143), wk =   0.0059524
        k(  110) = (   0.3750000   0.0000000   0.4285714), wk =   0.0059524
        k(  111) = (   0.3750000  -0.0000000  -0.4285714), wk =   0.0059524
        k(  112) = (   0.3750000   0.0000000  -0.2857143), wk =   0.0059524
        k(  113) = (   0.3750000  -0.0000000  -0.1428571), wk =   0.0059524
        k(  114) = (   0.3750000   0.1666667  -0.0000000), wk =   0.0059524
        k(  115) = (   0.3750000   0.1666667   0.1428571), wk =   0.0059524
        k(  116) = (   0.3750000   0.1666667   0.2857143), wk =   0.0059524
        k(  117) = (   0.3750000   0.1666667   0.4285714), wk =   0.0059524
        k(  118) = (   0.3750000   0.1666667  -0.4285714), wk =   0.0059524
        k(  119) = (   0.3750000   0.1666667  -0.2857143), wk =   0.0059524
        k(  120) = (   0.3750000   0.1666667  -0.1428571), wk =   0.0059524
        k(  121) = (   0.3750000   0.3333333  -0.0000000), wk =   0.0059524
        k(  122) = (   0.3750000   0.3333333   0.1428571), wk =   0.0059524
        k(  123) = (   0.3750000   0.3333333   0.2857143), wk =   0.0059524
        k(  124) = (   0.3750000   0.3333333   0.4285714), wk =   0.0059524
        k(  125) = (   0.3750000   0.3333333  -0.4285714), wk =   0.0059524
        k(  126) = (   0.3750000   0.3333333  -0.2857143), wk =   0.0059524
        k(  127) = (   0.3750000   0.3333333  -0.1428571), wk =   0.0059524
        k(  128) = (   0.3750000  -0.5000000   0.0000000), wk =   0.0059524
        k(  129) = (   0.3750000  -0.5000000   0.1428571), wk =   0.0059524
        k(  130) = (   0.3750000  -0.5000000   0.2857143), wk =   0.0059524
        k(  131) = (   0.3750000  -0.5000000   0.4285714), wk =   0.0059524
        k(  132) = (   0.3750000  -0.5000000  -0.4285714), wk =   0.0059524
        k(  133) = (   0.3750000  -0.5000000  -0.2857143), wk =   0.0059524
        k(  134) = (   0.3750000  -0.5000000  -0.1428571), wk =   0.0059524
        k(  135) = (   0.3750000  -0.3333333  -0.0000000), wk =   0.0059524
        k(  136) = (   0.3750000  -0.3333333   0.1428571), wk =   0.0059524
        k(  137) = (   0.3750000  -0.3333333   0.2857143), wk =   0.0059524
        k(  138) = (   0.3750000  -0.3333333   0.4285714), wk =   0.0059524
        k(  139) = (   0.3750000  -0.3333333  -0.4285714), wk =   0.0059524
        k(  140) = (   0.3750000  -0.3333333  -0.2857143), wk =   0.0059524
        k(  141) = (   0.3750000  -0.3333333  -0.1428571), wk =   0.0059524
        k(  142) = (   0.3750000  -0.1666667  -0.0000000), wk =   0.0059524
        k(  143) = (   0.3750000  -0.1666667   0.1428571), wk =   0.0059524
        k(  144) = (   0.3750000  -0.1666667   0.2857143), wk =   0.0059524
        k(  145) = (   0.3750000  -0.1666667   0.4285714), wk =   0.0059524
        k(  146) = (   0.3750000  -0.1666667  -0.4285714), wk =   0.0059524
        k(  147) = (   0.3750000  -0.1666667  -0.2857143), wk =   0.0059524
        k(  148) = (   0.3750000  -0.1666667  -0.1428571), wk =   0.0059524
        k(  149) = (  -0.5000000   0.0000000   0.0000000), wk =   0.0029762
        k(  150) = (  -0.5000000   0.0000000   0.1428571), wk =   0.0059524
        k(  151) = (  -0.5000000   0.0000000   0.2857143), wk =   0.0059524
        k(  152) = (  -0.5000000   0.0000000   0.4285714), wk =   0.0059524
        k(  153) = (  -0.5000000   0.1666667   0.0000000), wk =   0.0059524
        k(  154) = (  -0.5000000   0.1666667   0.1428571), wk =   0.0059524
        k(  155) = (  -0.5000000   0.1666667   0.2857143), wk =   0.0059524
        k(  156) = (  -0.5000000   0.1666667   0.4285714), wk =   0.0059524
        k(  157) = (  -0.5000000   0.1666667  -0.4285714), wk =   0.0059524
        k(  158) = (  -0.5000000   0.1666667  -0.2857143), wk =   0.0059524
        k(  159) = (  -0.5000000   0.1666667  -0.1428571), wk =   0.0059524
        k(  160) = (  -0.5000000   0.3333333   0.0000000), wk =   0.0059524
        k(  161) = (  -0.5000000   0.3333333   0.1428571), wk =   0.0059524
        k(  162) = (  -0.5000000   0.3333333   0.2857143), wk =   0.0059524
        k(  163) = (  -0.5000000   0.3333333   0.4285714), wk =   0.0059524
        k(  164) = (  -0.5000000   0.3333333  -0.4285714), wk =   0.0059524
        k(  165) = (  -0.5000000   0.3333333  -0.2857143), wk =   0.0059524
        k(  166) = (  -0.5000000   0.3333333  -0.1428571), wk =   0.0059524
        k(  167) = (  -0.5000000  -0.5000000   0.0000000), wk =   0.0029762
        k(  168) = (  -0.5000000  -0.5000000   0.1428571), wk =   0.0059524
        k(  169) = (  -0.5000000  -0.5000000   0.2857143), wk =   0.0059524
        k(  170) = (  -0.5000000  -0.5000000   0.4285714), wk =   0.0059524

     Dense  grid:   444949 G-vectors     FFT dimensions: (  80, 135, 108)

     Smooth grid:   157259 G-vectors     FFT dimensions: (  60,  96,  75)

     Dynamical RAM for                 wfc:      21.60 MB

     Dynamical RAM for     wfc (w. buffer):    7366.42 MB

     Dynamical RAM for             U proj.:       7.50 MB

     Dynamical RAM for  U proj. (w. buff.):    2557.79 MB

     Dynamical RAM for           str. fact:      13.58 MB

     Dynamical RAM for           local pot:       0.00 MB

     Dynamical RAM for          nlocal pot:      81.01 MB

     Dynamical RAM for                qrad:       7.03 MB

     Dynamical RAM for          rho,v,vnew:      94.13 MB

     Dynamical RAM for               rhoin:      31.38 MB

     Dynamical RAM for            rho*nmix:     217.26 MB

     Dynamical RAM for           G-vectors:      26.66 MB

     Dynamical RAM for          h,s,v(r/c):       0.24 MB

     Dynamical RAM for          <psi|beta>:       0.30 MB

     Dynamical RAM for      wfcinit/wfcrot:      43.32 MB

     Dynamical RAM for           addusdens:    1337.51 MB

     Dynamical RAM for          addusforce:    1459.80 MB

     Dynamical RAM for         addusstress:    1374.85 MB

     Estimated static dynamical RAM per process >      10.01 GB

     Estimated max dynamical RAM per process >      11.65 GB

     Atomic positions and unit cell read from directory:
     ./out/aiida.save/
 
     New effective cutoffs (rho, wfc):  480.00   60.00

     Check: negative core charge=   -0.000003
     Generating pointlists ...
     new r_m :   0.1675 (alat units)  1.8906 (a.u.) for type    1
     new r_m :   0.1675 (alat units)  1.8906 (a.u.) for type    2

     The initial density is read from file :
     ./out/aiida.save/charge-density


     starting charge     120.0063, renormalised to     120.0000

     negative rho (up, down):  2.081E-03 2.081E-03

     HUBBARD ENERGY =    1.2784  (Ry)

     STARTING HUBBARD OCCUPATIONS:

     =================== HUBBARD OCCUPATIONS ===================
     ------------------------ ATOM    1 ------------------------
     Tr[ns(  1)] (up, down, total) =   1.04368  1.04368  2.08736
     Atomic magnetic moment for atom   1 =   0.00000
     SPIN  1
     eigenvalues:
       0.091  0.107  0.109  0.366  0.371
     eigenvectors (columns):
       0.163  0.626 -0.023  0.695 -0.313
       0.036  0.714 -0.145 -0.681 -0.057
      -0.858  0.246  0.332  0.118  0.281
      -0.485 -0.166 -0.640 -0.015 -0.572
       0.025  0.103 -0.677  0.195  0.702
     occupation matrix ns (before diag.):
       0.258 -0.118  0.000  0.046 -0.023
      -0.118  0.228 -0.025  0.012 -0.045
       0.000 -0.025  0.120 -0.050  0.058
       0.046  0.012 -0.050  0.190 -0.106
      -0.023 -0.045  0.058 -0.106  0.248
     SPIN  2
     eigenvalues:
       0.091  0.107  0.109  0.366  0.371
     eigenvectors (columns):
       0.163  0.626 -0.023  0.695 -0.313
       0.036  0.714 -0.145 -0.681 -0.057
      -0.858  0.246  0.332  0.118  0.281
      -0.485 -0.166 -0.640 -0.015 -0.572
       0.025  0.103 -0.677  0.195  0.702
     occupation matrix ns (before diag.):
       0.258 -0.118  0.000  0.046 -0.023
      -0.118  0.228 -0.025  0.012 -0.045
       0.000 -0.025  0.120 -0.050  0.058
       0.046  0.012 -0.050  0.190 -0.106
      -0.023 -0.045  0.058 -0.106  0.248
     ------------------------ ATOM    2 ------------------------
     Tr[ns(  2)] (up, down, total) =   1.04330  1.04330  2.08661
     Atomic magnetic moment for atom   2 =   0.00000
     SPIN  1
     eigenvalues:
       0.091  0.108  0.108  0.368  0.369
     eigenvectors (columns):
       0.156  0.626 -0.071  0.659 -0.380
       0.010  0.701 -0.185 -0.688  0.002
      -0.856  0.250  0.336  0.153  0.262
      -0.493 -0.221 -0.614 -0.068 -0.571
       0.004  0.066 -0.686  0.254  0.679
     occupation matrix ns (before diag.):
       0.258 -0.118  0.002  0.046 -0.024
      -0.118  0.231 -0.027  0.012 -0.045
       0.002 -0.027  0.119 -0.049  0.057
       0.046  0.012 -0.049  0.190 -0.106
      -0.024 -0.045  0.057 -0.106  0.245
     SPIN  2
     eigenvalues:
       0.091  0.108  0.108  0.368  0.369
     eigenvectors (columns):
       0.156  0.626 -0.071  0.659 -0.380
       0.010  0.701 -0.185 -0.688  0.002
      -0.856  0.250  0.336  0.153  0.262
      -0.493 -0.221 -0.614 -0.068 -0.571
       0.004  0.066 -0.686  0.254  0.679
     occupation matrix ns (before diag.):
       0.258 -0.118  0.002  0.046 -0.024
      -0.118  0.231 -0.027  0.012 -0.045
       0.002 -0.027  0.119 -0.049  0.057
       0.046  0.012 -0.049  0.190 -0.106
      -0.024 -0.045  0.057 -0.106  0.245
     ------------------------ ATOM    3 ------------------------
     Tr[ns(  3)] (up, down, total) =   1.04306  1.04306  2.08612
     Atomic magnetic moment for atom   3 =   0.00000
     SPIN  1
     eigenvalues:
       0.090  0.107  0.109  0.367  0.370
     eigenvectors (columns):
      -0.150 -0.068  0.632  0.305 -0.693
       0.022 -0.161  0.701  0.089  0.689
       0.855  0.361  0.222 -0.266 -0.135
       0.495 -0.603 -0.229  0.582  0.000
       0.025 -0.689  0.090 -0.700 -0.164
     occupation matrix ns (before diag.):
       0.258 -0.118  0.006  0.047 -0.025
      -0.118  0.235 -0.031  0.013 -0.046
       0.006 -0.031  0.118 -0.047  0.054
       0.047  0.013 -0.047  0.191 -0.106
      -0.025 -0.046  0.054 -0.106  0.241
     SPIN  2
     eigenvalues:
       0.090  0.107  0.109  0.367  0.370
     eigenvectors (columns):
      -0.150 -0.068  0.632  0.305 -0.693
       0.022 -0.161  0.701  0.089  0.689
       0.855  0.361  0.222 -0.266 -0.135
       0.495 -0.603 -0.229  0.582  0.000
       0.025 -0.689  0.090 -0.700 -0.164
     occupation matrix ns (before diag.):
       0.258 -0.118  0.006  0.047 -0.025
      -0.118  0.235 -0.031  0.013 -0.046
       0.006 -0.031  0.118 -0.047  0.054
       0.047  0.013 -0.047  0.191 -0.106
      -0.025 -0.046  0.054 -0.106  0.241
     ------------------------ ATOM    4 ------------------------
     Tr[ns(  4)] (up, down, total) =   1.04306  1.04306  2.08612
     Atomic magnetic moment for atom   4 =   0.00000
     SPIN  1
     eigenvalues:
       0.090  0.107  0.109  0.367  0.370
     eigenvectors (columns):
      -0.150 -0.068  0.632  0.305 -0.693
       0.022 -0.161  0.701  0.089  0.689
       0.855  0.361  0.222 -0.266 -0.135
       0.495 -0.603 -0.229  0.582  0.000
       0.025 -0.689  0.090 -0.700 -0.164
     occupation matrix ns (before diag.):
       0.258 -0.118  0.006  0.047 -0.025
      -0.118  0.235 -0.031  0.013 -0.046
       0.006 -0.031  0.118 -0.047  0.054
       0.047  0.013 -0.047  0.191 -0.106
      -0.025 -0.046  0.054 -0.106  0.241
     SPIN  2
     eigenvalues:
       0.090  0.107  0.109  0.367  0.370
     eigenvectors (columns):
      -0.150 -0.068  0.632  0.305 -0.693
       0.022 -0.161  0.701  0.089  0.689
       0.855  0.361  0.222 -0.266 -0.135
       0.495 -0.603 -0.229  0.582  0.000
       0.025 -0.689  0.090 -0.700 -0.164
     occupation matrix ns (before diag.):
       0.258 -0.118  0.006  0.047 -0.025
      -0.118  0.235 -0.031  0.013 -0.046
       0.006 -0.031  0.118 -0.047  0.054
       0.047  0.013 -0.047  0.191 -0.106
      -0.025 -0.046  0.054 -0.106  0.241
     ------------------------ ATOM    5 ------------------------
     Tr[ns(  5)] (up, down, total) =   1.04330  1.04330  2.08661
     Atomic magnetic moment for atom   5 =   0.00000
     SPIN  1
     eigenvalues:
       0.091  0.108  0.108  0.368  0.369
     eigenvectors (columns):
       0.156  0.626 -0.071  0.659 -0.380
       0.010  0.702 -0.185 -0.688  0.002
      -0.856  0.250  0.336  0.153  0.262
      -0.493 -0.221 -0.614 -0.068 -0.571
       0.004  0.066 -0.686  0.254  0.679
     occupation matrix ns (before diag.):
       0.258 -0.118  0.002  0.046 -0.024
      -0.118  0.231 -0.027  0.012 -0.045
       0.002 -0.027  0.119 -0.049  0.057
       0.046  0.012 -0.049  0.190 -0.106
      -0.024 -0.045  0.057 -0.106  0.245
     SPIN  2
     eigenvalues:
       0.091  0.108  0.108  0.368  0.369
     eigenvectors (columns):
       0.156  0.626 -0.071  0.659 -0.380
       0.010  0.702 -0.185 -0.688  0.002
      -0.856  0.250  0.336  0.153  0.262
      -0.493 -0.221 -0.614 -0.068 -0.571
       0.004  0.066 -0.686  0.254  0.679
     occupation matrix ns (before diag.):
       0.258 -0.118  0.002  0.046 -0.024
      -0.118  0.231 -0.027  0.012 -0.045
       0.002 -0.027  0.119 -0.049  0.057
       0.046  0.012 -0.049  0.190 -0.106
      -0.024 -0.045  0.057 -0.106  0.245

     Number of occupied Hubbard levels =   10.4328

     Atomic wfc used for Hubbard projectors are orthogonalized

     Starting wfcs from file

     total cpu time spent up to now is        6.5 secs

     Self-consistent Calculation
[tb_dev] Currently allocated     1.05E+00 Mbytes, locked:    0 /   3
[tb_pin] Currently allocated     0.00E+00 Mbytes, locked:    0 /   0

     iteration #  1     ecut=    60.00 Ry     beta= 0.70
     CG style diagonalization

---- Real-time Memory Report at c_bands before calling an iterative solver
          3343 MiB given to the printing process from OS
             0 MiB allocation reported by mallinfo(arena+hblkhd)
        424859 MiB available memory on the node where the printing process lives
     GPU memory used/free/total (MiB): 3092 / 61852 / 64944
------------------
     ethr =  1.00E-05,  avg # of iterations =  2.0

     =================== HUBBARD OCCUPATIONS ===================
     ------------------------ ATOM    1 ------------------------
     Tr[ns(  1)] (up, down, total) =   2.55221  2.54838  5.10059
     Atomic magnetic moment for atom   1 =   0.00382
     SPIN  1
     eigenvalues:
       0.379  0.387  0.498  0.636  0.653
     eigenvectors (columns):
       0.152  0.784  0.134 -0.453  0.373
      -0.519 -0.398 -0.052 -0.317  0.684
       0.297 -0.094 -0.868 -0.379 -0.071
      -0.365  0.416 -0.472  0.647  0.229
       0.697 -0.210  0.055  0.364  0.579
     occupation matrix ns (before diag.):
       0.476  0.103  0.022 -0.057  0.016
       0.103  0.535  0.023 -0.008  0.079
       0.022  0.023  0.507 -0.019 -0.052
      -0.057 -0.008 -0.019  0.529  0.093
       0.016  0.079 -0.052  0.093  0.505
     SPIN  2
     eigenvalues:
       0.377  0.386  0.504  0.634  0.646
     eigenvectors (columns):
       0.183  0.779  0.077 -0.485  0.344
      -0.524 -0.386 -0.114 -0.372  0.652
       0.314 -0.109 -0.887 -0.292 -0.134
      -0.352  0.420 -0.435  0.663  0.268
       0.686 -0.237  0.075  0.319  0.605
     occupation matrix ns (before diag.):
       0.476  0.103  0.015 -0.059  0.015
       0.103  0.530  0.018 -0.011  0.075
       0.015  0.018  0.504 -0.011 -0.054
      -0.059 -0.011 -0.011  0.535  0.093
       0.015  0.075 -0.054  0.093  0.503
     ------------------------ ATOM    2 ------------------------
     Tr[ns(  2)] (up, down, total) =   2.55496  2.55016  5.10512
     Atomic magnetic moment for atom   2 =   0.00479
     SPIN  1
     eigenvalues:
       0.380  0.387  0.501  0.638  0.648
     eigenvectors (columns):
       0.235  0.768 -0.149  0.347  0.461
      -0.575 -0.331  0.036  0.171  0.728
       0.278 -0.123  0.854  0.421  0.022
      -0.321  0.446  0.495 -0.668  0.082
       0.659 -0.293 -0.035 -0.477  0.501
     occupation matrix ns (before diag.):
       0.475  0.103  0.024 -0.056  0.018
       0.103  0.531  0.027 -0.012  0.077
       0.024  0.027  0.514 -0.021 -0.052
      -0.056 -0.012 -0.021  0.528  0.090
       0.018  0.077 -0.052  0.090  0.507
     SPIN  2
     eigenvalues:
       0.378  0.387  0.506  0.636  0.643
     eigenvectors (columns):
       0.234  0.768  0.101 -0.394  0.436
      -0.566 -0.341 -0.087 -0.241  0.706
       0.302 -0.128 -0.878 -0.345 -0.045
      -0.322  0.438 -0.454  0.693  0.134
       0.656 -0.294  0.071  0.432  0.540
     occupation matrix ns (before diag.):
       0.475  0.103  0.018 -0.058  0.017
       0.103  0.527  0.023 -0.014  0.074
       0.018  0.023  0.508 -0.013 -0.053
      -0.058 -0.014 -0.013  0.535  0.091
       0.017  0.074 -0.053  0.091  0.505
     ------------------------ ATOM    3 ------------------------
     Tr[ns(  3)] (up, down, total) =   2.56117  2.55651  5.11768
     Atomic magnetic moment for atom   3 =   0.00465
     SPIN  1
     eigenvalues:
       0.381  0.388  0.501  0.639  0.652
     eigenvectors (columns):
       0.295  0.752  0.154 -0.385  0.420
      -0.620 -0.265 -0.039 -0.254  0.692
       0.271 -0.132 -0.866 -0.399 -0.003
      -0.281  0.470 -0.472  0.675  0.149
       0.613 -0.356  0.053  0.415  0.568
     occupation matrix ns (before diag.):
       0.474  0.102  0.023 -0.056  0.022
       0.102  0.528  0.030 -0.015  0.080
       0.023  0.030  0.512 -0.021 -0.048
      -0.056 -0.015 -0.021  0.533  0.091
       0.022  0.080 -0.048  0.091  0.514
     SPIN  2
     eigenvalues:
       0.378  0.387  0.510  0.637  0.644
     eigenvectors (columns):
       0.317  0.740 -0.112 -0.453 -0.367
      -0.623 -0.259  0.075 -0.357 -0.642
       0.290 -0.151  0.892 -0.308  0.054
      -0.269  0.469  0.419  0.682 -0.259
       0.595 -0.379 -0.108  0.326 -0.619
     occupation matrix ns (before diag.):
       0.473  0.102  0.017 -0.058  0.021
       0.102  0.522  0.028 -0.016  0.075
       0.017  0.028  0.509 -0.009 -0.047
      -0.058 -0.016 -0.009  0.542  0.093
       0.021  0.075 -0.047  0.093  0.510
     ------------------------ ATOM    4 ------------------------
     Tr[ns(  4)] (up, down, total) =   2.55847  2.55884  5.11730
     Atomic magnetic moment for atom   4 =  -0.00037
     SPIN  1
     eigenvalues:
       0.381  0.388  0.499  0.638  0.652
     eigenvectors (columns):
       0.297  0.750  0.158 -0.397  0.408
      -0.621 -0.264 -0.039 -0.275  0.684
       0.271 -0.130 -0.865 -0.402 -0.014
      -0.280  0.472 -0.472  0.669  0.170
       0.612 -0.359  0.051  0.398  0.580
     occupation matrix ns (before diag.):
       0.474  0.102  0.023 -0.056  0.022
       0.102  0.528  0.030 -0.015  0.080
       0.023  0.030  0.511 -0.022 -0.048
      -0.056 -0.015 -0.022  0.532  0.091
       0.022  0.080 -0.048  0.091  0.514
     SPIN  2
     eigenvalues:
       0.378  0.387  0.512  0.637  0.645
     eigenvectors (columns):
       0.318  0.739 -0.123 -0.466 -0.347
      -0.623 -0.257  0.070 -0.383 -0.628
       0.292 -0.147  0.890 -0.312  0.060
      -0.268  0.472  0.419  0.669 -0.288
       0.594 -0.380 -0.109  0.303 -0.632
     occupation matrix ns (before diag.):
       0.473  0.102  0.017 -0.058  0.021
       0.102  0.523  0.030 -0.015  0.075
       0.017  0.030  0.510 -0.009 -0.047
      -0.058 -0.015 -0.009  0.541  0.093
       0.021  0.075 -0.047  0.093  0.511
     ------------------------ ATOM    5 ------------------------
     Tr[ns(  5)] (up, down, total) =   2.55221  2.55122  5.10343
     Atomic magnetic moment for atom   5 =   0.00099
     SPIN  1
     eigenvalues:
       0.380  0.387  0.501  0.637  0.647
     eigenvectors (columns):
       0.230  0.769 -0.150  0.361  0.452
      -0.571 -0.337  0.040  0.196  0.721
       0.281 -0.119  0.854  0.422  0.005
      -0.324  0.444  0.496 -0.664  0.105
       0.661 -0.291 -0.034 -0.461  0.515
     occupation matrix ns (before diag.):
       0.475  0.103  0.024 -0.055  0.019
       0.103  0.530  0.027 -0.012  0.077
       0.024  0.027  0.514 -0.021 -0.052
      -0.055 -0.012 -0.021  0.527  0.090
       0.019  0.077 -0.052  0.090  0.506
     SPIN  2
     eigenvalues:
       0.378  0.386  0.506  0.637  0.644
     eigenvectors (columns):
       0.249  0.763 -0.102  0.363  0.462
      -0.574 -0.329  0.090  0.197  0.718
       0.299 -0.133  0.874  0.358 -0.030
      -0.313  0.443  0.463 -0.696  0.086
       0.649 -0.309 -0.061 -0.466  0.512
     occupation matrix ns (before diag.):
       0.475  0.103  0.018 -0.058  0.018
       0.103  0.527  0.023 -0.015  0.074
       0.018  0.023  0.509 -0.014 -0.054
      -0.058 -0.015 -0.014  0.534  0.091
       0.018  0.074 -0.054  0.091  0.505

     Number of occupied Hubbard levels =   25.5441

     HUBBARD ENERGY =    2.0805  (Ry)

     total cpu time spent up to now is      121.4 secs

     total energy              =    -725.38133423 Ry
     estimated scf accuracy    <       5.25288026 Ry

     total magnetization       =     0.00 Bohr mag/cell
     absolute magnetization    =     0.13 Bohr mag/cell
[tb_dev] Currently allocated     0.00E+00 Mbytes, locked:    0 /   0
[tb_pin] Currently allocated     0.00E+00 Mbytes, locked:    0 /   0

     iteration #  2     ecut=    60.00 Ry     beta= 0.70
     CG style diagonalization

---- Real-time Memory Report at c_bands before calling an iterative solver
         10768 MiB given to the printing process from OS
             0 MiB allocation reported by mallinfo(arena+hblkhd)
        415070 MiB available memory on the node where the printing process lives
     GPU memory used/free/total (MiB): 3464 / 61480 / 64944
------------------
     c_bands:  1 eigenvalues not converged
     c_bands:  1 eigenvalues not converged
     ethr =  4.38E-03,  avg # of iterations =  4.8

     =================== HUBBARD OCCUPATIONS ===================
     ------------------------ ATOM    1 ------------------------
     Tr[ns(  1)] (up, down, total) =   0.25597  0.25543  0.51140
     Atomic magnetic moment for atom   1 =   0.00054
     SPIN  1
     eigenvalues:
       0.026  0.027  0.027  0.087  0.089
     eigenvectors (columns):
       0.610  0.215 -0.053  0.623 -0.437
       0.640  0.332  0.103 -0.681  0.074
       0.222 -0.399  0.837  0.167  0.251
      -0.400  0.482  0.528 -0.122 -0.560
      -0.093  0.672  0.084  0.325  0.653
     occupation matrix ns (before diag.):
       0.062 -0.028 -0.001  0.011 -0.006
      -0.028  0.055 -0.006  0.003 -0.010
      -0.001 -0.006  0.033 -0.010  0.014
       0.011  0.003 -0.010  0.047 -0.025
      -0.006 -0.010  0.014 -0.025  0.060
     SPIN  2
     eigenvalues:
       0.026  0.027  0.027  0.087  0.089
     eigenvectors (columns):
       0.585  0.233 -0.155  0.617 -0.446
       0.641  0.346 -0.003 -0.680  0.082
       0.383 -0.429  0.761  0.169  0.247
      -0.304  0.447  0.615 -0.130 -0.559
      -0.087  0.665  0.134  0.334  0.649
     occupation matrix ns (before diag.):
       0.062 -0.028 -0.001  0.011 -0.006
      -0.028  0.055 -0.006  0.003 -0.010
      -0.001 -0.006  0.032 -0.010  0.013
       0.011  0.003 -0.010  0.047 -0.025
      -0.006 -0.010  0.013 -0.025  0.059
     ------------------------ ATOM    2 ------------------------
     Tr[ns(  2)] (up, down, total) =   0.25286  0.25230  0.50516
     Atomic magnetic moment for atom   2 =   0.00056
     SPIN  1
     eigenvalues:
       0.026  0.026  0.027  0.086  0.087
     eigenvectors (columns):
       0.459 -0.450  0.096 -0.474 -0.594
       0.429 -0.583 -0.050  0.639  0.255
       0.301  0.118 -0.896 -0.238  0.188
      -0.611 -0.335 -0.428  0.274 -0.506
      -0.376 -0.575  0.040 -0.485  0.539
     occupation matrix ns (before diag.):
       0.061 -0.028 -0.000  0.011 -0.006
      -0.028  0.055 -0.006  0.003 -0.010
      -0.000 -0.006  0.032 -0.009  0.013
       0.011  0.003 -0.009  0.046 -0.025
      -0.006 -0.010  0.013 -0.025  0.058
     SPIN  2
     eigenvalues:
       0.026  0.026  0.027  0.086  0.087
     eigenvectors (columns):
       0.456 -0.421  0.192 -0.466 -0.601
       0.461 -0.558  0.047  0.636  0.263
       0.458  0.122 -0.828 -0.239  0.183
      -0.502 -0.376 -0.525  0.281 -0.503
      -0.344 -0.596 -0.018 -0.493  0.532
     occupation matrix ns (before diag.):
       0.061 -0.028 -0.000  0.011 -0.006
      -0.028  0.055 -0.006  0.003 -0.010
      -0.000 -0.006  0.032 -0.009  0.013
       0.011  0.003 -0.009  0.046 -0.025
      -0.006 -0.010  0.013 -0.025  0.058
     ------------------------ ATOM    3 ------------------------
     Tr[ns(  3)] (up, down, total) =   0.24743  0.24686  0.49429
     Atomic magnetic moment for atom   3 =   0.00057
     SPIN  1
     eigenvalues:
       0.025  0.026  0.026  0.084  0.086
     eigenvectors (columns):
       0.220  0.573 -0.225  0.152 -0.741
       0.159  0.697 -0.076  0.231  0.656
       0.368  0.177  0.863 -0.289 -0.075
      -0.672  0.125  0.441  0.569 -0.120
      -0.582  0.374 -0.070 -0.718 -0.010
     occupation matrix ns (before diag.):
       0.060 -0.027  0.001  0.010 -0.006
      -0.027  0.055 -0.007  0.003 -0.010
       0.001 -0.007  0.031 -0.009  0.012
       0.010  0.003 -0.009  0.045 -0.024
      -0.006 -0.010  0.012 -0.024  0.056
     SPIN  2
     eigenvalues:
       0.025  0.026  0.026  0.084  0.086
     eigenvectors (columns):
      -0.207  0.526  0.326  0.157 -0.741
      -0.174  0.672  0.187  0.229  0.656
      -0.510  0.253 -0.767 -0.286 -0.076
       0.586  0.217 -0.520  0.570 -0.117
       0.568  0.401  0.024 -0.718 -0.016
     occupation matrix ns (before diag.):
       0.060 -0.027  0.001  0.010 -0.006
      -0.027  0.055 -0.007  0.003 -0.010
       0.001 -0.007  0.031 -0.009  0.012
       0.010  0.003 -0.009  0.046 -0.024
      -0.006 -0.010  0.012 -0.024  0.056
     ------------------------ ATOM    4 ------------------------
     Tr[ns(  4)] (up, down, total) =   0.24756  0.24713  0.49468
     Atomic magnetic moment for atom   4 =   0.00043
     SPIN  1
     eigenvalues:
       0.025  0.026  0.026  0.084  0.086
     eigenvectors (columns):
       0.221  0.570 -0.232  0.154 -0.741
       0.157  0.696 -0.086  0.229  0.656
       0.360  0.192  0.863 -0.289 -0.076
      -0.676  0.130  0.433  0.569 -0.118
      -0.583  0.371 -0.081 -0.718 -0.013
     occupation matrix ns (before diag.):
       0.060 -0.027  0.001  0.010 -0.006
      -0.027  0.055 -0.007  0.003 -0.010
       0.001 -0.007  0.031 -0.009  0.012
       0.010  0.003 -0.009  0.045 -0.024
      -0.006 -0.010  0.012 -0.024  0.056
     SPIN  2
     eigenvalues:
       0.025  0.026  0.026  0.084  0.086
     eigenvectors (columns):
      -0.199  0.535  0.316  0.158 -0.741
      -0.163  0.678  0.176  0.228  0.657
      -0.503  0.249 -0.773 -0.286 -0.075
       0.592  0.198 -0.521  0.570 -0.116
       0.575  0.391  0.020 -0.718 -0.017
     occupation matrix ns (before diag.):
       0.060 -0.027  0.001  0.010 -0.006
      -0.027  0.055 -0.007  0.003 -0.010
       0.001 -0.007  0.031 -0.009  0.012
       0.010  0.003 -0.009  0.046 -0.024
      -0.006 -0.010  0.012 -0.024  0.056
     ------------------------ ATOM    5 ------------------------
     Tr[ns(  5)] (up, down, total) =   0.25344  0.25298  0.50643
     Atomic magnetic moment for atom   5 =   0.00046
     SPIN  1
     eigenvalues:
       0.026  0.026  0.027  0.087  0.088
     eigenvectors (columns):
       0.458 -0.453  0.088 -0.480 -0.589
       0.428 -0.583 -0.060  0.642  0.248
       0.302  0.135 -0.894 -0.236  0.191
      -0.612 -0.325 -0.435  0.268 -0.509
      -0.377 -0.575  0.028 -0.479  0.544
     occupation matrix ns (before diag.):
       0.061 -0.028 -0.000  0.011 -0.006
      -0.028  0.055 -0.006  0.003 -0.010
      -0.000 -0.006  0.032 -0.009  0.013
       0.011  0.003 -0.009  0.046 -0.025
      -0.006 -0.010  0.013 -0.025  0.058
     SPIN  2
     eigenvalues:
       0.026  0.026  0.027  0.086  0.087
     eigenvectors (columns):
       0.451 -0.429  0.188 -0.482 -0.588
       0.450 -0.568  0.044  0.643  0.245
       0.447  0.106 -0.836 -0.233  0.190
      -0.518 -0.369 -0.514  0.266 -0.510
      -0.357 -0.589 -0.008 -0.478  0.546
     occupation matrix ns (before diag.):
       0.061 -0.028 -0.000  0.011 -0.006
      -0.028  0.055 -0.006  0.003 -0.010
      -0.000 -0.006  0.032 -0.009  0.013
       0.011  0.003 -0.009  0.047 -0.025
      -0.006 -0.010  0.013 -0.025  0.058

     Number of occupied Hubbard levels =    2.5120

     negative rho (up, down):  4.437E-05 4.582E-05

     HUBBARD ENERGY =    1.9225  (Ry)

     total cpu time spent up to now is      327.3 secs

     total energy              =    -830.26433156 Ry
     estimated scf accuracy    <      23.20093530 Ry

     total magnetization       =    -0.00 Bohr mag/cell
     absolute magnetization    =     0.02 Bohr mag/cell
[tb_dev] Currently allocated     0.00E+00 Mbytes, locked:    0 /   0
[tb_pin] Currently allocated     0.00E+00 Mbytes, locked:    0 /   0

     iteration #  3     ecut=    60.00 Ry     beta= 0.70
     CG style diagonalization

---- Real-time Memory Report at c_bands before calling an iterative solver
         10819 MiB given to the printing process from OS
             0 MiB allocation reported by mallinfo(arena+hblkhd)
        414987 MiB available memory on the node where the printing process lives
     GPU memory used/free/total (MiB): 3464 / 61480 / 64944
------------------
     ethr =  4.38E-03,  avg # of iterations =  4.0

     =================== HUBBARD OCCUPATIONS ===================
     ------------------------ ATOM    1 ------------------------
     Tr[ns(  1)] (up, down, total) =   0.59529  0.59503  1.19031
     Atomic magnetic moment for atom   1 =   0.00026
     SPIN  1
     eigenvalues:
       0.062  0.076  0.078  0.188  0.191
     eigenvectors (columns):
      -0.162  0.630  0.174  0.650 -0.351
      -0.034  0.688  0.208 -0.690  0.077
       0.868  0.268 -0.265  0.175  0.273
       0.467 -0.233  0.620 -0.132 -0.571
      -0.036 -0.055  0.687  0.231  0.686
     occupation matrix ns (before diag.):
       0.137 -0.053  0.004  0.015 -0.011
      -0.053  0.130 -0.011  0.005 -0.011
       0.004 -0.011  0.078 -0.027  0.026
       0.015  0.005 -0.027  0.113 -0.048
      -0.011 -0.011  0.026 -0.048  0.137
     SPIN  2
     eigenvalues:
       0.063  0.076  0.077  0.187  0.191
     eigenvectors (columns):
      -0.134  0.658  0.040  0.644 -0.364
      -0.004  0.716  0.067 -0.689  0.086
       0.883  0.171 -0.298  0.177  0.267
       0.449 -0.126  0.661 -0.141 -0.571
      -0.041  0.088  0.684  0.243  0.681
     occupation matrix ns (before diag.):
       0.137 -0.053  0.003  0.015 -0.011
      -0.053  0.130 -0.011  0.005 -0.012
       0.003 -0.011  0.078 -0.026  0.026
       0.015  0.005 -0.026  0.114 -0.048
      -0.011 -0.012  0.026 -0.048  0.137
     ------------------------ ATOM    2 ------------------------
     Tr[ns(  2)] (up, down, total) =   0.59178  0.59164  1.18342
     Atomic magnetic moment for atom   2 =   0.00014
     SPIN  1
     eigenvalues:
       0.062  0.076  0.076  0.188  0.189
     eigenvectors (columns):
      -0.153  0.336  0.566  0.562 -0.478
      -0.007  0.372  0.614 -0.662  0.213
       0.863 -0.220  0.319  0.236  0.225
       0.482  0.520 -0.387 -0.245 -0.536
      -0.012  0.656 -0.224  0.361  0.624
     occupation matrix ns (before diag.):
       0.137 -0.053  0.005  0.015 -0.011
      -0.053  0.131 -0.012  0.005 -0.012
       0.005 -0.012  0.077 -0.026  0.026
       0.015  0.005 -0.026  0.112 -0.048
      -0.011 -0.012  0.026 -0.048  0.135
     SPIN  2
     eigenvalues:
       0.062  0.076  0.076  0.188  0.189
     eigenvectors (columns):
      -0.129  0.585 -0.310  0.538 -0.505
       0.016  0.640 -0.325 -0.653  0.241
       0.878 -0.034 -0.353  0.242  0.211
       0.460  0.227  0.623 -0.270 -0.525
      -0.021  0.442  0.534  0.391  0.606
     occupation matrix ns (before diag.):
       0.137 -0.053  0.004  0.014 -0.011
      -0.053  0.130 -0.012  0.005 -0.012
       0.004 -0.012  0.077 -0.025  0.025
       0.014  0.005 -0.025  0.113 -0.048
      -0.011 -0.012  0.025 -0.048  0.135
     ------------------------ ATOM    3 ------------------------
     Tr[ns(  3)] (up, down, total) =   0.58620  0.58607  1.17227
     Atomic magnetic moment for atom   3 =   0.00013
     SPIN  1
     eigenvalues:
       0.061  0.075  0.076  0.186  0.189
     eigenvectors (columns):
       0.136 -0.076  0.663  0.179  0.710
      -0.032 -0.074  0.708  0.116 -0.692
      -0.865  0.349  0.166 -0.296  0.123
      -0.482 -0.622 -0.160  0.595  0.025
      -0.015 -0.693  0.079 -0.716  0.036
     occupation matrix ns (before diag.):
       0.136 -0.053  0.006  0.015 -0.011
      -0.053  0.131 -0.014  0.005 -0.012
       0.006 -0.014  0.076 -0.025  0.024
       0.015  0.005 -0.025  0.111 -0.047
      -0.011 -0.012  0.024 -0.047  0.132
     SPIN  2
     eigenvalues:
       0.062  0.074  0.076  0.186  0.189
     eigenvectors (columns):
       0.116 -0.209 -0.635  0.221 -0.700
      -0.050 -0.225 -0.675  0.081  0.696
      -0.881  0.289 -0.205 -0.284 -0.136
      -0.457 -0.582  0.307  0.598  0.008
      -0.002 -0.695  0.066 -0.711 -0.078
     occupation matrix ns (before diag.):
       0.136 -0.053  0.005  0.015 -0.011
      -0.053  0.131 -0.014  0.005 -0.013
       0.005 -0.014  0.076 -0.024  0.024
       0.015  0.005 -0.024  0.112 -0.048
      -0.011 -0.013  0.024 -0.048  0.131
     ------------------------ ATOM    4 ------------------------
     Tr[ns(  4)] (up, down, total) =   0.58623  0.58662  1.17285
     Atomic magnetic moment for atom   4 =  -0.00039
     SPIN  1
     eigenvalues:
       0.061  0.075  0.076  0.186  0.189
     eigenvectors (columns):
      -0.136 -0.077  0.662  0.185 -0.709
       0.032 -0.076  0.708  0.111  0.693
       0.863  0.352  0.167 -0.295 -0.125
       0.484 -0.620 -0.161  0.596 -0.020
       0.017 -0.693  0.078 -0.715 -0.042
     occupation matrix ns (before diag.):
       0.136 -0.053  0.006  0.015 -0.011
      -0.053  0.131 -0.014  0.005 -0.012
       0.006 -0.014  0.076 -0.025  0.024
       0.015  0.005 -0.025  0.111 -0.047
      -0.011 -0.012  0.024 -0.047  0.132
     SPIN  2
     eigenvalues:
       0.062  0.074  0.076  0.186  0.189
     eigenvectors (columns):
       0.119 -0.188 -0.641  0.203 -0.706
      -0.047 -0.202 -0.682  0.098  0.694
      -0.879  0.296 -0.200 -0.288 -0.128
      -0.459 -0.592  0.286  0.597 -0.007
      -0.002 -0.696  0.043 -0.714 -0.059
     occupation matrix ns (before diag.):
       0.136 -0.053  0.005  0.015 -0.011
      -0.053  0.131 -0.014  0.005 -0.013
       0.005 -0.014  0.076 -0.024  0.024
       0.015  0.005 -0.024  0.112 -0.047
      -0.011 -0.013  0.024 -0.047  0.132
     ------------------------ ATOM    5 ------------------------
     Tr[ns(  5)] (up, down, total) =   0.59222  0.59264  1.18486
     Atomic magnetic moment for atom   5 =  -0.00042
     SPIN  1
     eigenvalues:
       0.062  0.076  0.076  0.188  0.189
     eigenvectors (columns):
      -0.151 -0.104  0.650 -0.561 -0.479
      -0.006 -0.120  0.708  0.662  0.214
       0.863  0.321  0.214 -0.236  0.225
       0.481 -0.626 -0.171  0.246 -0.535
      -0.012 -0.692  0.033 -0.363  0.623
     occupation matrix ns (before diag.):
       0.137 -0.053  0.005  0.015 -0.011
      -0.053  0.131 -0.012  0.005 -0.012
       0.005 -0.012  0.077 -0.026  0.026
       0.015  0.005 -0.026  0.112 -0.048
      -0.011 -0.012  0.026 -0.048  0.135
     SPIN  2
     eigenvalues:
       0.063  0.076  0.077  0.188  0.189
     eigenvectors (columns):
      -0.127 -0.563 -0.351  0.559 -0.481
       0.019 -0.615 -0.369 -0.663  0.214
       0.876  0.066 -0.355  0.233  0.221
       0.465 -0.267  0.603 -0.247 -0.536
      -0.015 -0.478  0.502  0.365  0.621
     occupation matrix ns (before diag.):
       0.137 -0.053  0.004  0.014 -0.011
      -0.053  0.130 -0.012  0.005 -0.012
       0.004 -0.012  0.077 -0.025  0.025
       0.014  0.005 -0.025  0.113 -0.048
      -0.011 -0.012  0.025 -0.048  0.135

     Number of occupied Hubbard levels =    5.9037

     negative rho (up, down):  3.365E-04 3.385E-04

     HUBBARD ENERGY =    1.7963  (Ry)

     total cpu time spent up to now is      669.9 secs

     total energy              =    -834.04035177 Ry
     estimated scf accuracy    <       3.45978952 Ry

     total magnetization       =     0.00 Bohr mag/cell
     absolute magnetization    =     0.02 Bohr mag/cell
[tb_dev] Currently allocated     0.00E+00 Mbytes, locked:    0 /   0
[tb_pin] Currently allocated     0.00E+00 Mbytes, locked:    0 /   0

     iteration #  4     ecut=    60.00 Ry     beta= 0.70
     CG style diagonalization

---- Real-time Memory Report at c_bands before calling an iterative solver
         10833 MiB given to the printing process from OS
             0 MiB allocation reported by mallinfo(arena+hblkhd)
        415168 MiB available memory on the node where the printing process lives
     GPU memory used/free/total (MiB): 3464 / 61480 / 64944
------------------
     ethr =  2.88E-03,  avg # of iterations =  3.2

     =================== HUBBARD OCCUPATIONS ===================
     ------------------------ ATOM    1 ------------------------
     Tr[ns(  1)] (up, down, total) =   0.70767  0.70753  1.41519
     Atomic magnetic moment for atom   1 =   0.00014
     SPIN  1
     eigenvalues:
       0.076  0.091  0.093  0.222  0.227
     eigenvectors (columns):
       0.160  0.604 -0.221  0.591 -0.461
       0.036  0.654 -0.305 -0.675  0.151
      -0.868  0.306  0.237  0.198  0.240
      -0.467 -0.320 -0.587 -0.192 -0.546
       0.034 -0.107 -0.676  0.347  0.640
     occupation matrix ns (before diag.):
       0.165 -0.062  0.002  0.021 -0.013
      -0.062  0.154 -0.012  0.006 -0.017
       0.002 -0.012  0.092 -0.029  0.030
       0.021  0.006 -0.029  0.133 -0.055
      -0.013 -0.017  0.030 -0.055  0.163
     SPIN  2
     eigenvalues:
       0.077  0.090  0.093  0.221  0.227
     eigenvectors (columns):
      -0.115  0.639  0.131  0.584 -0.469
       0.011  0.689  0.214 -0.674  0.157
       0.892  0.205 -0.260  0.197  0.234
       0.434 -0.272  0.633 -0.197 -0.546
      -0.044 -0.008  0.685  0.356  0.635
     occupation matrix ns (before diag.):
       0.165 -0.062  0.001  0.021 -0.013
      -0.062  0.153 -0.013  0.006 -0.018
       0.001 -0.013  0.092 -0.028  0.030
       0.021  0.006 -0.028  0.134 -0.055
      -0.013 -0.018  0.030 -0.055  0.163
     ------------------------ ATOM    2 ------------------------
     Tr[ns(  2)] (up, down, total) =   0.70494  0.70469  1.40962
     Atomic magnetic moment for atom   2 =   0.00025
     SPIN  1
     eigenvalues:
       0.075  0.091  0.092  0.222  0.225
     eigenvectors (columns):
       0.151 -0.413  0.500  0.430 -0.610
       0.008 -0.419  0.585 -0.607  0.337
      -0.862 -0.391 -0.088  0.265  0.165
      -0.484  0.565  0.330 -0.340 -0.471
       0.007  0.428  0.539  0.511  0.515
     occupation matrix ns (before diag.):
       0.165 -0.062  0.003  0.021 -0.013
      -0.062  0.155 -0.014  0.006 -0.017
       0.003 -0.014  0.092 -0.029  0.029
       0.021  0.006 -0.029  0.132 -0.055
      -0.013 -0.017  0.029 -0.055  0.161
     SPIN  2
     eigenvalues:
       0.076  0.091  0.091  0.222  0.225
     eigenvectors (columns):
      -0.114  0.601  0.261  0.442 -0.602
       0.028  0.633  0.339 -0.615  0.322
       0.886  0.252 -0.239  0.256  0.168
       0.447 -0.393  0.553 -0.330 -0.480
      -0.023 -0.140  0.674  0.501  0.524
     occupation matrix ns (before diag.):
       0.165 -0.062  0.003  0.020 -0.013
      -0.062  0.154 -0.014  0.006 -0.018
       0.003 -0.014  0.092 -0.028  0.029
       0.020  0.006 -0.028  0.133 -0.055
      -0.013 -0.018  0.029 -0.055  0.161
     ------------------------ ATOM    3 ------------------------
     Tr[ns(  3)] (up, down, total) =   0.69970  0.69942  1.39912
     Atomic magnetic moment for atom   3 =   0.00028
     SPIN  1
     eigenvalues:
       0.075  0.089  0.091  0.221  0.224
     eigenvectors (columns):
      -0.137  0.083 -0.652  0.032  0.741
       0.029  0.053 -0.711  0.287 -0.639
       0.866  0.381 -0.098 -0.304  0.045
       0.479 -0.650  0.041  0.562  0.174
       0.014 -0.650 -0.241 -0.713 -0.105
     occupation matrix ns (before diag.):
       0.164 -0.062  0.005  0.021 -0.013
      -0.062  0.156 -0.016  0.006 -0.017
       0.005 -0.016  0.091 -0.027  0.028
       0.021  0.006 -0.027  0.131 -0.055
      -0.013 -0.017  0.028 -0.055  0.158
     SPIN  2
     eigenvalues:
       0.076  0.089  0.091  0.220  0.224
     eigenvectors (columns):
       0.106  0.003 -0.660  0.051  0.742
      -0.057  0.055 -0.710  0.276 -0.643
      -0.893 -0.314 -0.113 -0.297  0.049
      -0.433  0.662  0.160  0.568  0.163
       0.013  0.679 -0.148 -0.714 -0.087
     occupation matrix ns (before diag.):
       0.164 -0.062  0.004  0.020 -0.013
      -0.062  0.155 -0.016  0.006 -0.018
       0.004 -0.016  0.091 -0.026  0.028
       0.020  0.006 -0.026  0.132 -0.055
      -0.013 -0.018  0.028 -0.055  0.157
     ------------------------ ATOM    4 ------------------------
     Tr[ns(  4)] (up, down, total) =   0.69949  0.69986  1.39935
     Atomic magnetic moment for atom   4 =  -0.00037
     SPIN  1
     eigenvalues:
       0.074  0.089  0.091  0.221  0.224
     eigenvectors (columns):
      -0.138  0.085 -0.651  0.043  0.740
       0.029  0.056 -0.711  0.278 -0.643
       0.865  0.384 -0.097 -0.303  0.049
       0.481 -0.649  0.040  0.564  0.166
       0.016 -0.649 -0.243 -0.714 -0.096
     occupation matrix ns (before diag.):
       0.164 -0.062  0.005  0.021 -0.013
      -0.062  0.156 -0.016  0.006 -0.017
       0.005 -0.016  0.091 -0.028  0.028
       0.021  0.006 -0.028  0.131 -0.055
      -0.013 -0.017  0.028 -0.055  0.158
     SPIN  2
     eigenvalues:
       0.076  0.089  0.091  0.220  0.224
     eigenvectors (columns):
       0.110 -0.041 -0.659  0.046  0.742
      -0.053  0.006 -0.712  0.280 -0.642
      -0.892 -0.322 -0.096 -0.298  0.047
      -0.435  0.671  0.111  0.566  0.165
       0.014  0.666 -0.193 -0.714 -0.092
     occupation matrix ns (before diag.):
       0.164 -0.062  0.004  0.020 -0.013
      -0.062  0.156 -0.016  0.006 -0.018
       0.004 -0.016  0.091 -0.026  0.028
       0.020  0.006 -0.026  0.132 -0.055
      -0.013 -0.018  0.028 -0.055  0.157
     ------------------------ ATOM    5 ------------------------
     Tr[ns(  5)] (up, down, total) =   0.70508  0.70560  1.41068
     Atomic magnetic moment for atom   5 =  -0.00052
     SPIN  1
     eigenvalues:
       0.076  0.091  0.092  0.222  0.225
     eigenvectors (columns):
       0.150 -0.398  0.512  0.437 -0.606
       0.007 -0.401  0.598 -0.611  0.329
      -0.863 -0.391 -0.076  0.262  0.168
      -0.483  0.576  0.312 -0.334 -0.475
       0.007  0.443  0.527  0.505  0.520
     occupation matrix ns (before diag.):
       0.165 -0.062  0.003  0.021 -0.013
      -0.062  0.155 -0.014  0.006 -0.017
       0.003 -0.014  0.092 -0.029  0.029
       0.021  0.006 -0.029  0.132 -0.055
      -0.013 -0.017  0.029 -0.055  0.161
     SPIN  2
     eigenvalues:
       0.077  0.091  0.091  0.222  0.225
     eigenvectors (columns):
      -0.113  0.576 -0.312 -0.453 -0.593
       0.030  0.602 -0.392  0.622  0.311
       0.883  0.275  0.226 -0.253  0.173
       0.454 -0.437 -0.512  0.321 -0.487
      -0.015 -0.197 -0.660 -0.491  0.533
     occupation matrix ns (before diag.):
       0.165 -0.062  0.003  0.020 -0.013
      -0.062  0.155 -0.014  0.006 -0.018
       0.003 -0.014  0.092 -0.028  0.029
       0.020  0.006 -0.028  0.133 -0.055
      -0.013 -0.018  0.029 -0.055  0.161

     Number of occupied Hubbard levels =    7.0340

     negative rho (up, down):  8.182E-04 8.202E-04

     HUBBARD ENERGY =    1.6163  (Ry)

     total cpu time spent up to now is      796.3 secs

     WARNING: integrated charge=   120.00040828, expected=   120.00000000

     total energy              =    -835.32474744 Ry
     estimated scf accuracy    <       1.83566507 Ry

     total magnetization       =    -0.00 Bohr mag/cell
     absolute magnetization    =     0.02 Bohr mag/cell
[tb_dev] Currently allocated     0.00E+00 Mbytes, locked:    0 /   0
[tb_pin] Currently allocated     0.00E+00 Mbytes, locked:    0 /   0

     iteration #  5     ecut=    60.00 Ry     beta= 0.70
     CG style diagonalization

---- Real-time Memory Report at c_bands before calling an iterative solver
         10870 MiB given to the printing process from OS
             0 MiB allocation reported by mallinfo(arena+hblkhd)
        415192 MiB available memory on the node where the printing process lives
     GPU memory used/free/total (MiB): 3464 / 61480 / 64944
------------------
     ethr =  1.53E-03,  avg # of iterations =  3.3

     =================== HUBBARD OCCUPATIONS ===================
     ------------------------ ATOM    1 ------------------------
     Tr[ns(  1)] (up, down, total) =   0.94531  0.94437  1.88968
     Atomic magnetic moment for atom   1 =   0.00093
     SPIN  1
     eigenvalues:
       0.102  0.127  0.131  0.289  0.295
     eigenvectors (columns):
      -0.154  0.604  0.217  0.496 -0.564
      -0.028  0.655  0.308 -0.635  0.268
       0.866  0.303 -0.252  0.235  0.199
       0.474 -0.323  0.580 -0.285 -0.503
      -0.023 -0.102  0.677  0.462  0.564
     occupation matrix ns (before diag.):
       0.220 -0.076  0.003  0.027 -0.016
      -0.076  0.205 -0.015  0.008 -0.021
       0.003 -0.015  0.124 -0.038  0.036
       0.027  0.008 -0.038  0.179 -0.067
      -0.016 -0.021  0.036 -0.067  0.217
     SPIN  2
     eigenvalues:
       0.104  0.127  0.131  0.288  0.294
     eigenvectors (columns):
       0.120  0.637 -0.128  0.490 -0.569
      -0.008  0.690 -0.217 -0.635  0.272
      -0.885  0.217  0.280  0.233  0.193
      -0.450 -0.269 -0.624 -0.289 -0.503
       0.028 -0.004 -0.684  0.468  0.558
     occupation matrix ns (before diag.):
       0.220 -0.076  0.002  0.027 -0.016
      -0.076  0.205 -0.015  0.007 -0.022
       0.002 -0.015  0.124 -0.037  0.035
       0.027  0.007 -0.037  0.180 -0.067
      -0.016 -0.022  0.035 -0.067  0.216
     ------------------------ ATOM    2 ------------------------
     Tr[ns(  2)] (up, down, total) =   0.94390  0.94347  1.88737
     Atomic magnetic moment for atom   2 =   0.00043
     SPIN  1
     eigenvalues:
       0.102  0.128  0.130  0.289  0.294
     eigenvectors (columns):
       0.148 -0.447  0.468 -0.344  0.664
       0.004 -0.454  0.559  0.558 -0.412
      -0.862 -0.383 -0.117 -0.282 -0.128
      -0.484  0.545  0.362  0.397  0.424
       0.005  0.388  0.568 -0.577 -0.439
     occupation matrix ns (before diag.):
       0.220 -0.076  0.005  0.027 -0.016
      -0.076  0.207 -0.017  0.007 -0.021
       0.005 -0.017  0.124 -0.038  0.036
       0.027  0.007 -0.038  0.178 -0.067
      -0.016 -0.021  0.036 -0.067  0.214
     SPIN  2
     eigenvalues:
       0.104  0.128  0.129  0.289  0.293
     eigenvectors (columns):
      -0.119  0.600 -0.258 -0.342 -0.666
       0.023  0.632 -0.343  0.560  0.411
       0.881  0.265  0.248 -0.276  0.126
       0.457 -0.390 -0.548  0.397 -0.425
      -0.014 -0.136 -0.674 -0.579  0.438
     occupation matrix ns (before diag.):
       0.220 -0.076  0.004  0.026 -0.016
      -0.076  0.207 -0.017  0.007 -0.022
       0.004 -0.017  0.124 -0.036  0.035
       0.026  0.007 -0.036  0.179 -0.067
      -0.016 -0.022  0.035 -0.067  0.214
     ------------------------ ATOM    3 ------------------------
     Tr[ns(  3)] (up, down, total) =   0.94292  0.94206  1.88498
     Atomic magnetic moment for atom   3 =   0.00086
     SPIN  1
     eigenvalues:
       0.102  0.127  0.131  0.289  0.295
     eigenvectors (columns):
       0.143 -0.118 -0.644 -0.073  0.739
      -0.022 -0.081 -0.709  0.379 -0.589
      -0.868 -0.380 -0.091 -0.305 -0.002
      -0.474  0.655  0.009  0.529  0.257
      -0.006  0.637 -0.274 -0.691 -0.203
     occupation matrix ns (before diag.):
       0.220 -0.076  0.007  0.027 -0.016
      -0.076  0.210 -0.019  0.007 -0.022
       0.007 -0.019  0.123 -0.036  0.034
       0.027  0.007 -0.036  0.178 -0.068
      -0.016 -0.022  0.034 -0.068  0.211
     SPIN  2
     eigenvalues:
       0.104  0.127  0.130  0.288  0.293
     eigenvectors (columns):
       0.118 -0.021 -0.656 -0.016  0.745
      -0.042  0.036 -0.712  0.338 -0.613
      -0.889 -0.325 -0.122 -0.299  0.019
      -0.440  0.664  0.133  0.548  0.218
       0.012  0.673 -0.172 -0.704 -0.149
     occupation matrix ns (before diag.):
       0.220 -0.075  0.006  0.027 -0.016
      -0.075  0.209 -0.019  0.007 -0.023
       0.006 -0.019  0.124 -0.035  0.034
       0.027  0.007 -0.035  0.179 -0.067
      -0.016 -0.023  0.034 -0.067  0.211
     ------------------------ ATOM    4 ------------------------
     Tr[ns(  4)] (up, down, total) =   0.94276  0.94279  1.88554
     Atomic magnetic moment for atom   4 =  -0.00003
     SPIN  1
     eigenvalues:
       0.102  0.127  0.130  0.289  0.294
     eigenvectors (columns):
       0.144 -0.118 -0.643 -0.071  0.739
      -0.021 -0.082 -0.709  0.378 -0.589
      -0.867 -0.382 -0.092 -0.306 -0.001
      -0.476  0.654  0.009  0.529  0.255
      -0.008  0.637 -0.274 -0.692 -0.202
     occupation matrix ns (before diag.):
       0.220 -0.076  0.007  0.027 -0.016
      -0.076  0.210 -0.019  0.007 -0.022
       0.007 -0.019  0.123 -0.037  0.034
       0.027  0.007 -0.037  0.178 -0.068
      -0.016 -0.022  0.034 -0.068  0.211
     SPIN  2
     eigenvalues:
       0.105  0.127  0.130  0.288  0.293
     eigenvectors (columns):
       0.120 -0.076 -0.653 -0.019  0.744
      -0.039 -0.024 -0.712  0.341 -0.612
      -0.888 -0.334 -0.097 -0.299  0.017
      -0.441  0.673  0.074  0.546  0.219
       0.012  0.655 -0.228 -0.704 -0.153
     occupation matrix ns (before diag.):
       0.220 -0.075  0.006  0.026 -0.016
      -0.075  0.209 -0.019  0.007 -0.023
       0.006 -0.019  0.124 -0.035  0.034
       0.026  0.007 -0.035  0.179 -0.067
      -0.016 -0.023  0.034 -0.067  0.211
     ------------------------ ATOM    5 ------------------------
     Tr[ns(  5)] (up, down, total) =   0.94374  0.94398  1.88772
     Atomic magnetic moment for atom   5 =  -0.00024
     SPIN  1
     eigenvalues:
       0.102  0.128  0.130  0.289  0.294
     eigenvectors (columns):
       0.148 -0.437  0.476 -0.352  0.661
       0.004 -0.442  0.569  0.564 -0.403
      -0.863 -0.384 -0.109 -0.280 -0.132
      -0.483  0.553  0.351  0.391  0.430
       0.005  0.399  0.561 -0.572 -0.446
     occupation matrix ns (before diag.):
       0.220 -0.076  0.005  0.027 -0.016
      -0.076  0.207 -0.017  0.007 -0.022
       0.005 -0.017  0.124 -0.038  0.036
[...]

     HUBBARD ENERGY =    1.2784  (Ry)

     total cpu time spent up to now is    30230.2 secs

     WARNING: integrated charge=   120.00844629, expected=   120.00000000

     total energy              =    -835.91525906 Ry
     estimated scf accuracy    <       0.00000199 Ry

     total magnetization       =     0.00 Bohr mag/cell
     absolute magnetization    =     0.00 Bohr mag/cell
[tb_dev] Currently allocated     0.00E+00 Mbytes, locked:    0 /   0
[tb_pin] Currently allocated     0.00E+00 Mbytes, locked:    0 /   0

     iteration #249     ecut=    60.00 Ry     beta= 0.70
     CG style diagonalization

---- Real-time Memory Report at c_bands before calling an iterative solver
         10979 MiB given to the printing process from OS
             0 MiB allocation reported by mallinfo(arena+hblkhd)
        459905 MiB available memory on the node where the printing process lives
     GPU memory used/free/total (MiB): 3464 / 61480 / 64944
------------------
     ethr =  1.91E-10,  avg # of iterations =  3.0
     Minimization algorithm failed to find Fermi energy: reverting to bisection
     Possible cause: smearing is larger than the electronic band-gap.

     =================== HUBBARD OCCUPATIONS ===================
     ------------------------ ATOM    1 ------------------------
     Tr[ns(  1)] (up, down, total) =   1.04377  1.04377  2.08753
     Atomic magnetic moment for atom   1 =  -0.00000
     SPIN  1
     eigenvalues:
       0.090  0.107  0.109  0.366  0.371
     eigenvectors (columns):
      -0.163  0.626  0.015  0.696 -0.312
      -0.035  0.716  0.136 -0.681 -0.058
       0.858  0.241 -0.335  0.118  0.282
       0.485 -0.159  0.642 -0.014 -0.572
      -0.025  0.112  0.676  0.194  0.702
     occupation matrix ns (before diag.):
       0.258 -0.118  0.000  0.046 -0.023
      -0.118  0.228 -0.025  0.012 -0.045
       0.000 -0.025  0.120 -0.050  0.058
       0.046  0.012 -0.050  0.190 -0.106
      -0.023 -0.045  0.058 -0.106  0.248
     SPIN  2
     eigenvalues:
       0.090  0.107  0.109  0.366  0.371
     eigenvectors (columns):
      -0.163  0.626  0.015  0.696 -0.312
      -0.035  0.716  0.136 -0.681 -0.058
       0.858  0.241 -0.335  0.118  0.282
       0.485 -0.159  0.642 -0.014 -0.572
      -0.025  0.112  0.676  0.194  0.702
     occupation matrix ns (before diag.):
       0.258 -0.118  0.000  0.046 -0.023
      -0.118  0.228 -0.025  0.012 -0.045
       0.000 -0.025  0.120 -0.050  0.058
       0.046  0.012 -0.050  0.190 -0.106
      -0.023 -0.045  0.058 -0.106  0.248
     ------------------------ ATOM    2 ------------------------
     Tr[ns(  2)] (up, down, total) =   1.04338  1.04338  2.08676
     Atomic magnetic moment for atom   2 =  -0.00000
     SPIN  1
     eigenvalues:
       0.091  0.108  0.108  0.368  0.369
     eigenvectors (columns):
      -0.156  0.629  0.041  0.661 -0.375
      -0.009  0.710  0.151 -0.688 -0.003
       0.856  0.233 -0.347  0.151  0.263
       0.493 -0.192  0.625 -0.065 -0.571
      -0.004  0.099  0.682  0.249  0.681
     occupation matrix ns (before diag.):
       0.258 -0.118  0.002  0.046 -0.024
      -0.118  0.231 -0.027  0.012 -0.045
       0.002 -0.027  0.119 -0.049  0.057
       0.046  0.012 -0.049  0.190 -0.106
      -0.024 -0.045  0.057 -0.106  0.245
     SPIN  2
     eigenvalues:
       0.091  0.108  0.108  0.368  0.369
     eigenvectors (columns):
      -0.156  0.629  0.041  0.661 -0.375
      -0.009  0.710  0.151 -0.688 -0.003
       0.856  0.233 -0.347  0.151  0.263
       0.493 -0.191  0.625 -0.065 -0.571
      -0.004  0.099  0.682  0.249  0.681
     occupation matrix ns (before diag.):
       0.258 -0.118  0.002  0.046 -0.024
      -0.118  0.231 -0.027  0.012 -0.045
       0.002 -0.027  0.119 -0.049  0.057
       0.046  0.012 -0.049  0.190 -0.106
      -0.024 -0.045  0.057 -0.106  0.245
     ------------------------ ATOM    3 ------------------------
     Tr[ns(  3)] (up, down, total) =   1.04314  1.04314  2.08627
     Atomic magnetic moment for atom   3 =  -0.00000
     SPIN  1
     eigenvalues:
       0.090  0.107  0.109  0.367  0.370
     eigenvectors (columns):
      -0.150 -0.078  0.631  0.307 -0.692
       0.022 -0.172  0.698  0.088  0.689
       0.855  0.357  0.228 -0.265 -0.135
       0.495 -0.600 -0.238  0.582  0.001
       0.024 -0.690  0.079 -0.699 -0.165
     occupation matrix ns (before diag.):
       0.258 -0.118  0.006  0.047 -0.025
      -0.118  0.235 -0.031  0.013 -0.046
       0.006 -0.031  0.118 -0.047  0.054
       0.047  0.013 -0.047  0.191 -0.106
      -0.025 -0.046  0.054 -0.106  0.241
     SPIN  2
     eigenvalues:
       0.090  0.107  0.109  0.367  0.370
     eigenvectors (columns):
      -0.150 -0.078  0.631  0.307 -0.692
       0.022 -0.172  0.698  0.088  0.689
       0.855  0.357  0.228 -0.265 -0.135
       0.495 -0.600 -0.238  0.582  0.001
       0.024 -0.690  0.079 -0.699 -0.165
     occupation matrix ns (before diag.):
       0.258 -0.118  0.006  0.047 -0.025
      -0.118  0.235 -0.031  0.013 -0.046
       0.006 -0.031  0.118 -0.047  0.054
       0.047  0.013 -0.047  0.191 -0.106
      -0.025 -0.046  0.054 -0.106  0.241
     ------------------------ ATOM    4 ------------------------
     Tr[ns(  4)] (up, down, total) =   1.04314  1.04314  2.08628
     Atomic magnetic moment for atom   4 =  -0.00000
     SPIN  1
     eigenvalues:
       0.090  0.107  0.109  0.367  0.370
     eigenvectors (columns):
      -0.150 -0.078  0.631  0.307 -0.692
       0.022 -0.172  0.698  0.088  0.689
       0.855  0.357  0.228 -0.265 -0.135
       0.495 -0.600 -0.238  0.582  0.001
       0.024 -0.690  0.079 -0.699 -0.165
     occupation matrix ns (before diag.):
       0.258 -0.118  0.006  0.047 -0.025
      -0.118  0.235 -0.031  0.013 -0.046
       0.006 -0.031  0.118 -0.047  0.054
       0.047  0.013 -0.047  0.191 -0.106
      -0.025 -0.046  0.054 -0.106  0.241
     SPIN  2
     eigenvalues:
       0.090  0.107  0.109  0.367  0.370
     eigenvectors (columns):
      -0.150 -0.078  0.631  0.307 -0.692
       0.022 -0.172  0.698  0.088  0.689
       0.855  0.357  0.228 -0.265 -0.135
       0.495 -0.600 -0.238  0.582  0.001
       0.024 -0.690  0.079 -0.699 -0.165
     occupation matrix ns (before diag.):
       0.258 -0.118  0.006  0.047 -0.025
      -0.118  0.235 -0.031  0.013 -0.046
       0.006 -0.031  0.118 -0.047  0.054
       0.047  0.013 -0.047  0.191 -0.106
      -0.025 -0.046  0.054 -0.106  0.241
     ------------------------ ATOM    5 ------------------------
     Tr[ns(  5)] (up, down, total) =   1.04338  1.04338  2.08677
     Atomic magnetic moment for atom   5 =  -0.00000
     SPIN  1
     eigenvalues:
       0.091  0.108  0.108  0.368  0.369
     eigenvectors (columns):
      -0.156  0.629  0.041  0.661 -0.375
      -0.009  0.710  0.151 -0.688 -0.003
       0.856  0.233 -0.347  0.151  0.263
       0.493 -0.191  0.625 -0.064 -0.571
      -0.004  0.099  0.682  0.249  0.681
     occupation matrix ns (before diag.):
       0.258 -0.118  0.002  0.046 -0.024
      -0.118  0.231 -0.027  0.012 -0.045
       0.002 -0.027  0.119 -0.049  0.057
       0.046  0.012 -0.049  0.190 -0.106
      -0.024 -0.045  0.057 -0.106  0.245
     SPIN  2
     eigenvalues:
       0.091  0.108  0.108  0.368  0.369
     eigenvectors (columns):
      -0.156  0.629  0.041  0.661 -0.375
      -0.009  0.710  0.151 -0.688 -0.003
       0.856  0.233 -0.347  0.151  0.263
       0.493 -0.191  0.625 -0.064 -0.571
      -0.004  0.099  0.682  0.249  0.681
     occupation matrix ns (before diag.):
       0.258 -0.118  0.002  0.046 -0.024
      -0.118  0.231 -0.027  0.012 -0.045
       0.002 -0.027  0.119 -0.049  0.057
       0.046  0.012 -0.049  0.190 -0.106
      -0.024 -0.045  0.057 -0.106  0.245

     Number of occupied Hubbard levels =   10.4336

     negative rho (up, down):  2.081E-03 2.081E-03

     HUBBARD ENERGY =    1.2784  (Ry)

     total cpu time spent up to now is    30345.6 secs

     WARNING: integrated charge=   120.00617791, expected=   120.00000000

     total energy              =    -835.91525863 Ry
     estimated scf accuracy    <       0.00000192 Ry

     total magnetization       =     0.00 Bohr mag/cell
     absolute magnetization    =     0.00 Bohr mag/cell
[tb_dev] Currently allocated     0.00E+00 Mbytes, locked:    0 /   0
[tb_pin] Currently allocated     0.00E+00 Mbytes, locked:    0 /   0

     iteration #250     ecut=    60.00 Ry     beta= 0.70
     CG style diagonalization

---- Real-time Memory Report at c_bands before calling an iterative solver
         10979 MiB given to the printing process from OS
             0 MiB allocation reported by mallinfo(arena+hblkhd)
        459906 MiB available memory on the node where the printing process lives
     GPU memory used/free/total (MiB): 3464 / 61480 / 64944
------------------
     ethr =  1.91E-10,  avg # of iterations =  3.5
     Minimization algorithm failed to find Fermi energy: reverting to bisection
     Possible cause: smearing is larger than the electronic band-gap.

     =================== HUBBARD OCCUPATIONS ===================
     ------------------------ ATOM    1 ------------------------
     Tr[ns(  1)] (up, down, total) =   1.04375  1.04375  2.08749
     Atomic magnetic moment for atom   1 =  -0.00000
     SPIN  1
     eigenvalues:
       0.090  0.107  0.109  0.366  0.371
     eigenvectors (columns):
      -0.163  0.626  0.015  0.696 -0.312
      -0.035  0.716  0.136 -0.681 -0.059
       0.858  0.241 -0.335  0.118  0.282
       0.485 -0.158  0.642 -0.014 -0.572
      -0.025  0.112  0.675  0.194  0.702
     occupation matrix ns (before diag.):
       0.258 -0.118  0.000  0.046 -0.023
      -0.118  0.228 -0.025  0.012 -0.045
       0.000 -0.025  0.120 -0.050  0.058
       0.046  0.012 -0.050  0.190 -0.106
      -0.023 -0.045  0.058 -0.106  0.248
     SPIN  2
     eigenvalues:
       0.090  0.107  0.109  0.366  0.371
     eigenvectors (columns):
      -0.163  0.626  0.015  0.696 -0.312
      -0.035  0.716  0.136 -0.681 -0.059
       0.858  0.241 -0.335  0.118  0.282
       0.485 -0.158  0.642 -0.014 -0.572
      -0.025  0.112  0.675  0.194  0.702
     occupation matrix ns (before diag.):
       0.258 -0.118  0.000  0.046 -0.023
      -0.118  0.228 -0.025  0.012 -0.045
       0.000 -0.025  0.120 -0.050  0.058
       0.046  0.012 -0.050  0.190 -0.106
      -0.023 -0.045  0.058 -0.106  0.248
     ------------------------ ATOM    2 ------------------------
     Tr[ns(  2)] (up, down, total) =   1.04336  1.04336  2.08673
     Atomic magnetic moment for atom   2 =  -0.00000
     SPIN  1
     eigenvalues:
       0.091  0.108  0.108  0.368  0.369
     eigenvectors (columns):
      -0.156  0.629  0.039  0.662 -0.375
      -0.009  0.710  0.149 -0.688 -0.003
       0.856  0.232 -0.348  0.151  0.264
       0.493 -0.190  0.625 -0.064 -0.571
      -0.004  0.101  0.681  0.249  0.681
     occupation matrix ns (before diag.):
       0.258 -0.118  0.002  0.046 -0.024
      -0.118  0.231 -0.027  0.012 -0.045
       0.002 -0.027  0.119 -0.049  0.057
       0.046  0.012 -0.049  0.190 -0.106
      -0.024 -0.045  0.057 -0.106  0.245
     SPIN  2
     eigenvalues:
       0.091  0.108  0.108  0.368  0.369
     eigenvectors (columns):
      -0.156  0.629  0.039  0.662 -0.375
      -0.009  0.710  0.149 -0.688 -0.003
       0.856  0.232 -0.348  0.151  0.264
       0.493 -0.190  0.625 -0.064 -0.571
      -0.004  0.101  0.681  0.249  0.681
     occupation matrix ns (before diag.):
       0.258 -0.118  0.002  0.046 -0.024
      -0.118  0.231 -0.027  0.012 -0.045
       0.002 -0.027  0.119 -0.049  0.057
       0.046  0.012 -0.049  0.190 -0.106
      -0.024 -0.045  0.057 -0.106  0.245
     ------------------------ ATOM    3 ------------------------
     Tr[ns(  3)] (up, down, total) =   1.04312  1.04312  2.08624
     Atomic magnetic moment for atom   3 =   0.00000
     SPIN  1
     eigenvalues:
       0.090  0.107  0.109  0.367  0.370
     eigenvectors (columns):
      -0.150 -0.079  0.631  0.307 -0.692
       0.022 -0.173  0.698  0.087  0.689
       0.855  0.357  0.228 -0.265 -0.135
       0.495 -0.600 -0.239  0.582  0.001
       0.024 -0.691  0.079 -0.699 -0.165
     occupation matrix ns (before diag.):
       0.258 -0.118  0.006  0.047 -0.025
      -0.118  0.235 -0.031  0.013 -0.046
       0.006 -0.031  0.118 -0.047  0.054
       0.047  0.013 -0.047  0.191 -0.106
      -0.025 -0.046  0.054 -0.106  0.241
     SPIN  2
     eigenvalues:
       0.090  0.107  0.109  0.367  0.370
     eigenvectors (columns):
      -0.150 -0.079  0.631  0.307 -0.692
       0.022 -0.173  0.698  0.087  0.689
       0.855  0.357  0.228 -0.265 -0.135
       0.495 -0.600 -0.239  0.582  0.001
       0.024 -0.691  0.079 -0.699 -0.165
     occupation matrix ns (before diag.):
       0.258 -0.118  0.006  0.047 -0.025
      -0.118  0.235 -0.031  0.013 -0.046
       0.006 -0.031  0.118 -0.047  0.054
       0.047  0.013 -0.047  0.191 -0.106
      -0.025 -0.046  0.054 -0.106  0.241
     ------------------------ ATOM    4 ------------------------
     Tr[ns(  4)] (up, down, total) =   1.04312  1.04312  2.08625
     Atomic magnetic moment for atom   4 =   0.00000
     SPIN  1
     eigenvalues:
       0.090  0.107  0.109  0.367  0.370
     eigenvectors (columns):
      -0.150 -0.079  0.631  0.307 -0.692
       0.022 -0.173  0.698  0.087  0.689
       0.855  0.357  0.228 -0.265 -0.135
       0.495 -0.600 -0.239  0.582  0.001
       0.024 -0.691  0.079 -0.699 -0.165
     occupation matrix ns (before diag.):
       0.258 -0.118  0.006  0.047 -0.025
      -0.118  0.235 -0.031  0.013 -0.046
       0.006 -0.031  0.118 -0.047  0.054
       0.047  0.013 -0.047  0.191 -0.106
      -0.025 -0.046  0.054 -0.106  0.241
     SPIN  2
     eigenvalues:
       0.090  0.107  0.109  0.367  0.370
     eigenvectors (columns):
      -0.150 -0.079  0.631  0.307 -0.692
       0.022 -0.173  0.698  0.087  0.689
       0.855  0.357  0.228 -0.265 -0.135
       0.495 -0.600 -0.239  0.582  0.001
       0.024 -0.691  0.079 -0.699 -0.165
     occupation matrix ns (before diag.):
       0.258 -0.118  0.006  0.047 -0.025
      -0.118  0.235 -0.031  0.013 -0.046
       0.006 -0.031  0.118 -0.047  0.054
       0.047  0.013 -0.047  0.191 -0.106
      -0.025 -0.046  0.054 -0.106  0.241
     ------------------------ ATOM    5 ------------------------
     Tr[ns(  5)] (up, down, total) =   1.04337  1.04337  2.08673
     Atomic magnetic moment for atom   5 =   0.00000
     SPIN  1
     eigenvalues:
       0.091  0.108  0.108  0.368  0.369
     eigenvectors (columns):
      -0.156  0.629  0.039  0.662 -0.375
      -0.009  0.710  0.149 -0.688 -0.003
       0.856  0.232 -0.348  0.151  0.264
       0.493 -0.189  0.625 -0.064 -0.571
      -0.004  0.101  0.681  0.249  0.681
     occupation matrix ns (before diag.):
       0.258 -0.118  0.002  0.046 -0.024
      -0.118  0.231 -0.027  0.012 -0.045
       0.002 -0.027  0.119 -0.049  0.057
       0.046  0.012 -0.049  0.190 -0.106
      -0.024 -0.045  0.057 -0.106  0.245
     SPIN  2
     eigenvalues:
       0.091  0.108  0.108  0.368  0.369
     eigenvectors (columns):
      -0.156  0.629  0.039  0.662 -0.375
      -0.009  0.710  0.149 -0.688 -0.003
       0.856  0.232 -0.348  0.151  0.264
       0.493 -0.189  0.625 -0.064 -0.571
      -0.004  0.101  0.681  0.249  0.681
     occupation matrix ns (before diag.):
       0.258 -0.118  0.002  0.046 -0.024
      -0.118  0.231 -0.027  0.012 -0.045
       0.002 -0.027  0.119 -0.049  0.057
       0.046  0.012 -0.049  0.190 -0.106
      -0.024 -0.045  0.057 -0.106  0.245

     Number of occupied Hubbard levels =   10.4334

     negative rho (up, down):  2.081E-03 2.081E-03

     HUBBARD ENERGY =    1.2784  (Ry)

     total cpu time spent up to now is    30488.5 secs

     WARNING: integrated charge=   120.00555140, expected=   120.00000000

     total energy              =    -835.91525857 Ry
     estimated scf accuracy    <       0.00000093 Ry

     total magnetization       =    -0.00 Bohr mag/cell
     absolute magnetization    =     0.00 Bohr mag/cell

     End of self-consistent calculation

     convergence NOT achieved after 250 iterations: stopping

     Writing config to output data dir ./out/aiida.save/ :
     XML data file, charge density
 
     init_run     :      4.88s CPU      5.93s WALL (       1 calls)
     electrons    :  29804.08s CPU  30482.32s WALL (       1 calls)

     Called by init_run:
     wfcinit      :      2.81s CPU      3.52s WALL (       1 calls)
     potinit      :      0.11s CPU      0.27s WALL (       1 calls)
     hinit0       :      1.24s CPU      1.36s WALL (       1 calls)

     Called by electrons:
     c_bands      :  27992.83s CPU  28664.27s WALL (     250 calls)
     sum_band     :   1761.24s CPU   1767.11s WALL (     250 calls)
     v_of_rho     :      6.06s CPU      6.16s WALL (     251 calls)
     v_h          :      2.03s CPU      2.08s WALL (     251 calls)
     v_xc         :      4.02s CPU      4.08s WALL (     251 calls)
     newd         :      7.20s CPU      7.23s WALL (     251 calls)
     mix_rho      :     16.27s CPU     16.36s WALL (     250 calls)

     Called by c_bands:
     init_us_2    :     94.74s CPU     95.41s WALL (  170340 calls)
     ccgdiagg     :  25948.56s CPU  26519.36s WALL (   85001 calls)
     wfcrot       :   1104.37s CPU   1110.96s WALL (   84661 calls)
                                     1110.69s GPU  (   84661 calls)

     Called by sum_band:
     sum_band:wei :      6.66s CPU      6.67s WALL (     250 calls)
     sum_band:loo :    865.20s CPU    868.13s WALL (     250 calls)
     sum_band:buf :    315.39s CPU    316.66s WALL (   85000 calls)
     sum_band:ini :     46.91s CPU     47.14s WALL (   85000 calls)
     sum_band:cal :      3.43s CPU      3.43s WALL (   85000 calls)
     sum_band:bec :     69.99s CPU     70.32s WALL (   85000 calls)
     addusdens    :     14.90s CPU     14.95s WALL (     250 calls)
                                       14.95s GPU  (     250 calls)
     addusd:skk   :      0.11s CPU      0.11s WALL (     500 calls)
                                        0.11s GPU  (     500 calls)

     Called by *cgdiagg:
     h_psi        :  11475.28s CPU  11713.80s WALL (12992577 calls)
     s_psi        :   9885.64s CPU  10014.23s WALL (25900833 calls)

     Called by h_psi:
     h_psi:calbec :    132.81s CPU    134.77s WALL (12992577 calls)
     vloc_psi     :   4315.12s CPU   4526.32s WALL (12992577 calls)
                                     4441.60s GPU  (12992577 calls)
     add_vuspsi   :   4410.89s CPU   4502.42s WALL (12992577 calls)
     vhpsi        :   2234.18s CPU   2282.96s WALL (12992577 calls)
     hs_1psi      :  15263.17s CPU  16529.49s WALL (12907916 calls)
                                    16448.51s GPU  (12907916 calls)
     s_1psi       :   5497.69s CPU   6462.68s WALL (12907916 calls)
                                     6382.29s GPU  (12907916 calls)

     General routines
     calbec       :    856.80s CPU    866.93s WALL (39063410 calls)
     fft          :      9.13s CPU      9.62s WALL (    6273 calls)
                                        0.49s GPU  (    5771 calls)
     ffts         :      2.98s CPU      3.02s WALL (    1002 calls)
                                        0.03s GPU  (     500 calls)
     fftw         :    256.34s CPU   2256.23s WALL (27087442 calls)
                                     2087.40s GPU  (27087442 calls)
     interpolate  :     13.72s CPU     13.79s WALL (     502 calls)
     davcio       :      0.14s CPU      9.87s WALL (     698 calls)
 
     Parallel routines

     Hubbard U routines
     new_ns       :    870.53s CPU    873.38s WALL (     250 calls)
     vhpsi        :   2234.18s CPU   2282.96s WALL (12992577 calls)
 
     PWSCF        :      8h16m CPU      8h28m WALL

 
   This run was terminated on:  18:54:10  15Oct2025            

=------------------------------------------------------------------------------=
   JOB DONE.
=------------------------------------------------------------------------------=
