
     Program PWSCF v.7.4.1 starts on 14Oct2025 at 15:48:40 

     This program is part of the open-source Quantum ESPRESSO suite
     for quantum simulation of materials; please cite
         "P. Giannozzi et al., J. Phys.:Condens. Matter 21 395502 (2009);
         "P. Giannozzi et al., J. Phys.:Condens. Matter 29 465901 (2017);
         "P. Giannozzi et al., J. Chem. Phys. 152 154105 (2020);
          URL http://www.quantum-espresso.org", 
     in publications or presentations arising from this work. More details at
     http://www.quantum-espresso.org/quote

     Parallel version (MPI & OpenMP), running on       1 processor cores
     Number of MPI processes:                 1
     Threads/MPI process:                     1

     MPI processes distributed on     1 nodes
     390598 MiB available memory on the printing compute node when the environment starts
 
     Reading input from pwscf.in
Warning: card &FCP ignored
Warning: card &RISM ignored

     Current dimensions of program PWSCF are:
     Max number of different atomic species (ntypx) = 10
     Max number of k-points (npk) =  40000
     Max angular momentum in pseudopotentials (lmaxx) =  4
     file O.pbesol-n-kjpaw_psl.0.1.UPF: wavefunction(s)  2P renormalized
 check tnoseh fnoseh  F    1.000000000000000     
     Message from routine setup:
     using ibrav=0 with symmetry is DISCOURAGED, use correct ibrav instead
 
     Subspace diagonalization in iterative solution of the eigenvalue problem:
     a serial algorithm will be used

 
     G-vector sticks info
     --------------------
     sticks:   dense  smooth     PW     G-vecs:    dense   smooth      PW
     Sum        5153    2569    729               375767   132819   19855
 
     Using Slab Decomposition
 


     bravais-lattice index     =            0
     lattice parameter (alat)  =      12.8090  a.u.
     unit-cell volume          =    2781.7357 (a.u.)^3
     number of atoms/cell      =           30
     number of atomic types    =            3
     number of electrons       =       270.00
     number of Kohn-Sham states=          162
     kinetic-energy cutoff     =      50.0000  Ry
     charge density cutoff     =     400.0000  Ry
     scf convergence threshold =      6.4E-09
     mixing beta               =       0.7000
     number of iterations used =            8  plain     mixing
     energy convergence thresh.=      3.2E-04
     force convergence thresh. =      1.0E-04
     press convergence thresh. =      5.0E-01
     Exchange-correlation= SLA  PW   PSX  PSC
                           (   1   4  10   8   0   0   0)
     nstep                     =           50


     GPU acceleration is ACTIVE.  1 visible GPUs per MPI rank
     GPU-aware MPI enabled


     GPU used by master process:

        Device Number: 0
        Device name: NVIDIA A100-SXM-64GB
        Compute capability : 80
        Ratio of single to double precision performance  : 2
        Memory Clock Rate (KHz): 1593000
        Memory Bus Width (bits): 4096
        Peak Memory Bandwidth (GB/s): ******
     Hubbard projectors: ortho-atomic
     Hubbard parameters of DFT+U (Dudarev formulation) in eV:
     U(Ni-3d) =  5.8000
     U(V-3d) =  3.9000

     Internal variables: lda_plus_u = T, lda_plus_u_kind = 0

     celldm(1)=  12.808970  celldm(2)=   0.000000  celldm(3)=   0.000000
     celldm(4)=   0.000000  celldm(5)=   0.000000  celldm(6)=   0.000000

     crystal axes: (cart. coord. in units of alat)
               a(1) = (   1.000000   0.000000   0.000000 )  
               a(2) = (  -0.209665   0.986573   0.000000 )  
               a(3) = (  -0.255109  -0.435101   1.341665 )  

     reciprocal axes: (cart. coord. in units 2 pi/alat)
               b(1) = (  1.000000  0.212518  0.259063 )  
               b(2) = ( -0.000000  1.013610  0.328713 )  
               b(3) = (  0.000000 -0.000000  0.745342 )  


     PseudoPot. # 1 for Ni read from file:
     /leonardo_scratch/large/userexternal/nalghamd/mc_mace/GNoME-screening/2_space_group_DFT/pseudo_SSSP1.3_aiida/ni_pbesol_v1.4.uspp.F.UPF
     MD5 check sum: de937c0c8ae4b350e69c02b76d8a83cb
     Pseudo is Ultrasoft + core correction, Zval = 18.0
     Generated by new atomic code, or converted to UPF format
     Using radial grid of  865 points,  6 beta functions with: 
                l(1) =   0
                l(2) =   0
                l(3) =   1
                l(4) =   1
                l(5) =   2
                l(6) =   2
     Q(r) pseudized with 10 coefficients,  rinner =    0.980   0.980   0.980
                                                       0.980   0.980

     PseudoPot. # 2 for O  read from file:
     /leonardo_scratch/large/userexternal/nalghamd/mc_mace/GNoME-screening/2_space_group_DFT/pseudo_SSSP1.3_aiida/O.pbesol-n-kjpaw_psl.0.1.UPF
     MD5 check sum: 81d73d1479e654e5638b0319f0d6c2c7
     Pseudo is Projector augmented-wave + core cor, Zval =  6.0
     Generated using "atomic" code by A. Dal Corso  v.6.0 svn rev. 13079
     Shape of augmentation charge: BESSEL
     Using radial grid of 1095 points,  4 beta functions with: 
                l(1) =   0
                l(2) =   0
                l(3) =   1
                l(4) =   1
     Q(r) pseudized with 0 coefficients 


     PseudoPot. # 3 for V  read from file:
     /leonardo_scratch/large/userexternal/nalghamd/mc_mace/GNoME-screening/2_space_group_DFT/pseudo_SSSP1.3_aiida/v_pbesol_v1.4.uspp.F.UPF
     MD5 check sum: 72fa7d0034c41d8adc50bbc8c632b9f9
     Pseudo is Ultrasoft + core correction, Zval = 13.0
     Generated by new atomic code, or converted to UPF format
     Using radial grid of  853 points,  6 beta functions with: 
                l(1) =   0
                l(2) =   0
                l(3) =   1
                l(4) =   1
                l(5) =   2
                l(6) =   2
     Q(r) pseudized with  8 coefficients,  rinner =    1.100   1.100   1.100
                                                       1.100   1.100

     atomic species   valence    mass     pseudopotential
     Ni               18.00    58.69340     Ni( 1.00)
     O                 6.00    15.99940     O ( 1.00)
     V                13.00    50.94150     V ( 1.00)

     Starting magnetic structure 
     atomic species   magnetization
     Ni              0.100
     O               0.278
     V               0.100

      2 Sym. Ops., with inversion, found


                                    s                        frac. trans.

      isym =  1     identity                                     

 cryst.   s( 1) = (     1          0          0      )
                  (     0          1          0      )
                  (     0          0          1      )

 cart.    s( 1) = (  1.0000000  0.0000000  0.0000000 )
                  (  0.0000000  1.0000000  0.0000000 )
                  (  0.0000000  0.0000000  1.0000000 )


      isym =  2     inversion                                    

 cryst.   s( 2) = (    -1          0          0      )
                  (     0         -1          0      )
                  (     0          0         -1      )

 cart.    s( 2) = ( -1.0000000 -0.0000000 -0.0000000 )
                  (  0.0000000 -1.0000000 -0.0000000 )
                  (  0.0000000  0.0000000 -1.0000000 )


   Cartesian axes

     site n.     atom                  positions (alat units)
         1        V      tau(   1) = (   0.0256968  -0.0877057   0.4085277  )
         2        V      tau(   2) = (   0.5095300   0.6391771   0.9331376  )
         3        V      tau(   3) = (  -0.0180521   0.1553964   0.8212588  )
         4        V      tau(   4) = (   0.5532789   0.3960749   0.5204065  )
         5        V      tau(   5) = (   0.6836837   0.3123150   0.0609143  )
         6        V      tau(   6) = (  -0.1484570   0.2391563   1.2807510  )
         7        Ni     tau(   7) = (   0.4855062   0.1197814   0.9476356  )
         8        Ni     tau(   8) = (   0.0497206   0.4316899   0.3940296  )
         9        Ni     tau(   9) = (   0.1596172   0.1735292   0.0265368  )
        10        Ni     tau(  10) = (   0.3756096   0.3779421   1.3151285  )
        11        O      tau(  11) = (  -0.0956342  -0.0198518   0.6404976  )
        12        O      tau(  12) = (   0.5358818  -0.1766875   0.8814835  )
        13        O      tau(  13) = (   0.4561213   0.2159301   0.0569617  )
        14        O      tau(  14) = (   0.1163333   0.1379185   0.3259267  )
        15        O      tau(  15) = (   0.6230696   0.8064508   0.2751648  )
        16        O      tau(  16) = (   0.5919452  -0.3028456   1.3213323  )
        17        O      tau(  17) = (  -0.2062692   0.1834777   1.0153750  )
        18        O      tau(  18) = (   0.7414960   0.3679936   0.3262903  )
        19        O      tau(  19) = (   0.5180055   0.1813212   0.6434788  )
        20        O      tau(  20) = (   0.0172212   0.3701501   0.6981865  )
        21        O      tau(  21) = (  -0.0878428  -0.2549794   1.0665005  )
        22        O      tau(  22) = (   0.4432529   0.0842883   1.2503623  )
        23        O      tau(  23) = (   0.0791055   0.3355413   1.2847035  )
        24        O      tau(  24) = (   0.6308610   0.5713232   0.7011677  )
        25        O      tau(  25) = (   0.4188935   0.4135528   1.0157385  )
        26        O      tau(  26) = (  -0.0006550   0.7281588   0.4601818  )
        27        O      tau(  27) = (   0.3392123   0.4856476   0.4335927  )
        28        O      tau(  28) = (  -0.0567184   0.8543169   0.0203329  )
        29        O      tau(  29) = (   0.1960145   0.0658237   0.9080726  )
        30        O      tau(  30) = (   0.0919739   0.4671831   0.0913030  )

   Crystallographic axes

     site n.     atom                  positions (cryst. coord.)
         1        V      tau(   1) = (  0.1128920  0.0453890  0.3044930  )
         2        V      tau(   2) = (  0.8871080  0.9546110  0.6955070  )
         3        V      tau(   3) = (  0.2277300  0.4274700  0.6121190  )
         4        V      tau(   4) = (  0.7722700  0.5725300  0.3878810  )
         5        V      tau(   5) = (  0.7658370  0.3365890  0.0454020  )
         6        V      tau(   6) = (  0.2341630  0.6634110  0.9545980  )
         7        Ni     tau(   7) = (  0.7564590  0.4329120  0.7063130  )
         8        Ni     tau(   8) = (  0.2435410  0.5670880  0.2936870  )
         9        Ni     tau(   9) = (  0.2033700  0.1846140  0.0197790  )
        10        Ni     tau(  10) = (  0.7966300  0.8153860  0.9802210  )
        11        O      tau(  11) = (  0.0660760  0.1904180  0.4773900  )
        12        O      tau(  12) = (  0.7266920  0.1106630  0.6570070  )
        13        O      tau(  13) = (  0.5167670  0.2375930  0.0424560  )
        14        O      tau(  14) = (  0.2300790  0.2469320  0.2429270  )
        15        O      tau(  15) = (  0.8657400  0.9078770  0.2050920  )
        16        O      tau(  16) = (  0.8698930  0.1273720  0.9848450  )
        17        O      tau(  17) = (  0.0957690  0.5197420  0.7568020  )
        18        O      tau(  18) = (  0.9042310  0.4802580  0.2431980  )
        19        O      tau(  19) = (  0.7232410  0.3953090  0.4796120  )
        20        O      tau(  20) = (  0.2767590  0.6046910  0.5203880  )
        21        O      tau(  21) = (  0.1342600  0.0921230  0.7949080  )
        22        O      tau(  22) = (  0.7850880  0.4964460  0.9319480  )
        23        O      tau(  23) = (  0.4832330  0.7624070  0.9575440  )
        24        O      tau(  24) = (  0.9339240  0.8095820  0.5226100  )
        25        O      tau(  25) = (  0.7699210  0.7530680  0.7570730  )
        26        O      tau(  26) = (  0.2733080  0.8893370  0.3429930  )
        27        O      tau(  27) = (  0.5547490  0.6347850  0.3231750  )
        28        O      tau(  28) = (  0.1301070  0.8726280  0.0151550  )
        29        O      tau(  29) = (  0.4452510  0.3652150  0.6768250  )
        30        O      tau(  30) = (  0.2149120  0.5035540  0.0680520  )

     number of k points=   123  Marzari-Vanderbilt smearing, width (Ry)=  0.0200
                       cart. coord. in units 2pi/alat
        k(    1) = (   0.0000000   0.0000000   0.0000000), wk =   0.0040816
        k(    2) = (   0.0000000   0.0000000   0.1490685), wk =   0.0081633
        k(    3) = (   0.0000000   0.0000000   0.2981370), wk =   0.0081633
        k(    4) = (   0.0000000   0.1448014   0.0469590), wk =   0.0081633
        k(    5) = (   0.0000000   0.1448014   0.1960275), wk =   0.0081633
        k(    6) = (   0.0000000   0.1448014   0.3450960), wk =   0.0081633
        k(    7) = (   0.0000000   0.1448014  -0.2511779), wk =   0.0081633
        k(    8) = (   0.0000000   0.1448014  -0.1021095), wk =   0.0081633
        k(    9) = (   0.0000000   0.2896029   0.0939181), wk =   0.0081633
        k(   10) = (   0.0000000   0.2896029   0.2429865), wk =   0.0081633
        k(   11) = (   0.0000000   0.2896029   0.3920550), wk =   0.0081633
        k(   12) = (   0.0000000   0.2896029  -0.2042189), wk =   0.0081633
        k(   13) = (   0.0000000   0.2896029  -0.0551504), wk =   0.0081633
        k(   14) = (   0.0000000   0.4344043   0.1408771), wk =   0.0081633
        k(   15) = (   0.0000000   0.4344043   0.2899456), wk =   0.0081633
        k(   16) = (   0.0000000   0.4344043   0.4390140), wk =   0.0081633
        k(   17) = (   0.0000000   0.4344043  -0.1572599), wk =   0.0081633
        k(   18) = (   0.0000000   0.4344043  -0.0081914), wk =   0.0081633
        k(   19) = (   0.1428571   0.0303597   0.0370090), wk =   0.0081633
        k(   20) = (   0.1428571   0.0303597   0.1860774), wk =   0.0081633
        k(   21) = (   0.1428571   0.0303597   0.3351459), wk =   0.0081633
        k(   22) = (   0.1428571   0.0303597  -0.2611280), wk =   0.0081633
        k(   23) = (   0.1428571   0.0303597  -0.1120595), wk =   0.0081633
        k(   24) = (   0.1428571   0.1751612   0.0839680), wk =   0.0081633
        k(   25) = (   0.1428571   0.1751612   0.2330365), wk =   0.0081633
        k(   26) = (   0.1428571   0.1751612   0.3821049), wk =   0.0081633
        k(   27) = (   0.1428571   0.1751612  -0.2141690), wk =   0.0081633
        k(   28) = (   0.1428571   0.1751612  -0.0651005), wk =   0.0081633
        k(   29) = (   0.1428571   0.3199626   0.1309270), wk =   0.0081633
        k(   30) = (   0.1428571   0.3199626   0.2799955), wk =   0.0081633
        k(   31) = (   0.1428571   0.3199626   0.4290640), wk =   0.0081633
        k(   32) = (   0.1428571   0.3199626  -0.1672099), wk =   0.0081633
        k(   33) = (   0.1428571   0.3199626  -0.0181415), wk =   0.0081633
        k(   34) = (   0.1428571   0.4647641   0.1778860), wk =   0.0081633
        k(   35) = (   0.1428571   0.4647641   0.3269545), wk =   0.0081633
        k(   36) = (   0.1428571   0.4647641   0.4760230), wk =   0.0081633
        k(   37) = (   0.1428571   0.4647641  -0.1202509), wk =   0.0081633
        k(   38) = (   0.1428571   0.4647641   0.0288176), wk =   0.0081633
        k(   39) = (   0.1428571  -0.4040446  -0.1038681), wk =   0.0081633
        k(   40) = (   0.1428571  -0.4040446   0.0452004), wk =   0.0081633
        k(   41) = (   0.1428571  -0.4040446   0.1942688), wk =   0.0081633
        k(   42) = (   0.1428571  -0.4040446  -0.4020051), wk =   0.0081633
        k(   43) = (   0.1428571  -0.4040446  -0.2529366), wk =   0.0081633
        k(   44) = (   0.1428571  -0.2592432  -0.0569091), wk =   0.0081633
        k(   45) = (   0.1428571  -0.2592432   0.0921594), wk =   0.0081633
        k(   46) = (   0.1428571  -0.2592432   0.2412279), wk =   0.0081633
        k(   47) = (   0.1428571  -0.2592432  -0.3550460), wk =   0.0081633
        k(   48) = (   0.1428571  -0.2592432  -0.2059776), wk =   0.0081633
        k(   49) = (   0.1428571  -0.1144417  -0.0099501), wk =   0.0081633
        k(   50) = (   0.1428571  -0.1144417   0.1391184), wk =   0.0081633
        k(   51) = (   0.1428571  -0.1144417   0.2881869), wk =   0.0081633
        k(   52) = (   0.1428571  -0.1144417  -0.3080870), wk =   0.0081633
        k(   53) = (   0.1428571  -0.1144417  -0.1590185), wk =   0.0081633
        k(   54) = (   0.2857143   0.0607195   0.0740179), wk =   0.0081633
        k(   55) = (   0.2857143   0.0607195   0.2230864), wk =   0.0081633
        k(   56) = (   0.2857143   0.0607195   0.3721549), wk =   0.0081633
        k(   57) = (   0.2857143   0.0607195  -0.2241190), wk =   0.0081633
        k(   58) = (   0.2857143   0.0607195  -0.0750505), wk =   0.0081633
        k(   59) = (   0.2857143   0.2055209   0.1209770), wk =   0.0081633
        k(   60) = (   0.2857143   0.2055209   0.2700454), wk =   0.0081633
        k(   61) = (   0.2857143   0.2055209   0.4191139), wk =   0.0081633
        k(   62) = (   0.2857143   0.2055209  -0.1771600), wk =   0.0081633
        k(   63) = (   0.2857143   0.2055209  -0.0280915), wk =   0.0081633
        k(   64) = (   0.2857143   0.3503224   0.1679360), wk =   0.0081633
        k(   65) = (   0.2857143   0.3503224   0.3170045), wk =   0.0081633
        k(   66) = (   0.2857143   0.3503224   0.4660729), wk =   0.0081633
        k(   67) = (   0.2857143   0.3503224  -0.1302010), wk =   0.0081633
        k(   68) = (   0.2857143   0.3503224   0.0188675), wk =   0.0081633
        k(   69) = (   0.2857143   0.4951238   0.2148950), wk =   0.0081633
        k(   70) = (   0.2857143   0.4951238   0.3639635), wk =   0.0081633
        k(   71) = (   0.2857143   0.4951238   0.5130320), wk =   0.0081633
        k(   72) = (   0.2857143   0.4951238  -0.0832419), wk =   0.0081633
        k(   73) = (   0.2857143   0.4951238   0.0658265), wk =   0.0081633
        k(   74) = (   0.2857143  -0.3736849  -0.0668591), wk =   0.0081633
        k(   75) = (   0.2857143  -0.3736849   0.0822093), wk =   0.0081633
        k(   76) = (   0.2857143  -0.3736849   0.2312778), wk =   0.0081633
        k(   77) = (   0.2857143  -0.3736849  -0.3649961), wk =   0.0081633
        k(   78) = (   0.2857143  -0.3736849  -0.2159276), wk =   0.0081633
        k(   79) = (   0.2857143  -0.2288834  -0.0199001), wk =   0.0081633
        k(   80) = (   0.2857143  -0.2288834   0.1291684), wk =   0.0081633
        k(   81) = (   0.2857143  -0.2288834   0.2782368), wk =   0.0081633
        k(   82) = (   0.2857143  -0.2288834  -0.3180371), wk =   0.0081633
        k(   83) = (   0.2857143  -0.2288834  -0.1689686), wk =   0.0081633
        k(   84) = (   0.2857143  -0.0840820   0.0270589), wk =   0.0081633
        k(   85) = (   0.2857143  -0.0840820   0.1761274), wk =   0.0081633
        k(   86) = (   0.2857143  -0.0840820   0.3251959), wk =   0.0081633
        k(   87) = (   0.2857143  -0.0840820  -0.2710781), wk =   0.0081633
        k(   88) = (   0.2857143  -0.0840820  -0.1220096), wk =   0.0081633
        k(   89) = (   0.4285714   0.0910792   0.1110269), wk =   0.0081633
        k(   90) = (   0.4285714   0.0910792   0.2600954), wk =   0.0081633
        k(   91) = (   0.4285714   0.0910792   0.4091639), wk =   0.0081633
        k(   92) = (   0.4285714   0.0910792  -0.1871101), wk =   0.0081633
        k(   93) = (   0.4285714   0.0910792  -0.0380416), wk =   0.0081633
        k(   94) = (   0.4285714   0.2358807   0.1579859), wk =   0.0081633
        k(   95) = (   0.4285714   0.2358807   0.3070544), wk =   0.0081633
        k(   96) = (   0.4285714   0.2358807   0.4561229), wk =   0.0081633
        k(   97) = (   0.4285714   0.2358807  -0.1401510), wk =   0.0081633
        k(   98) = (   0.4285714   0.2358807   0.0089174), wk =   0.0081633
        k(   99) = (   0.4285714   0.3806821   0.2049449), wk =   0.0081633
        k(  100) = (   0.4285714   0.3806821   0.3540134), wk =   0.0081633
        k(  101) = (   0.4285714   0.3806821   0.5030819), wk =   0.0081633
        k(  102) = (   0.4285714   0.3806821  -0.0931920), wk =   0.0081633
        k(  103) = (   0.4285714   0.3806821   0.0558765), wk =   0.0081633
        k(  104) = (   0.4285714   0.5254836   0.2519040), wk =   0.0081633
        k(  105) = (   0.4285714   0.5254836   0.4009725), wk =   0.0081633
        k(  106) = (   0.4285714   0.5254836   0.5500409), wk =   0.0081633
        k(  107) = (   0.4285714   0.5254836  -0.0462330), wk =   0.0081633
        k(  108) = (   0.4285714   0.5254836   0.1028355), wk =   0.0081633
        k(  109) = (   0.4285714  -0.3433251  -0.0298502), wk =   0.0081633
        k(  110) = (   0.4285714  -0.3433251   0.1192183), wk =   0.0081633
        k(  111) = (   0.4285714  -0.3433251   0.2682868), wk =   0.0081633
        k(  112) = (   0.4285714  -0.3433251  -0.3279871), wk =   0.0081633
        k(  113) = (   0.4285714  -0.3433251  -0.1789187), wk =   0.0081633
        k(  114) = (   0.4285714  -0.1985237   0.0171088), wk =   0.0081633
        k(  115) = (   0.4285714  -0.1985237   0.1661773), wk =   0.0081633
        k(  116) = (   0.4285714  -0.1985237   0.3152458), wk =   0.0081633
        k(  117) = (   0.4285714  -0.1985237  -0.2810281), wk =   0.0081633
        k(  118) = (   0.4285714  -0.1985237  -0.1319596), wk =   0.0081633
        k(  119) = (   0.4285714  -0.0537222   0.0640679), wk =   0.0081633
        k(  120) = (   0.4285714  -0.0537222   0.2131364), wk =   0.0081633
        k(  121) = (   0.4285714  -0.0537222   0.3622048), wk =   0.0081633
        k(  122) = (   0.4285714  -0.0537222  -0.2340691), wk =   0.0081633
        k(  123) = (   0.4285714  -0.0537222  -0.0850006), wk =   0.0081633

                       cryst. coord.
        k(    1) = (   0.0000000   0.0000000   0.0000000), wk =   0.0040816
        k(    2) = (   0.0000000   0.0000000   0.2000000), wk =   0.0081633
        k(    3) = (   0.0000000   0.0000000   0.4000000), wk =   0.0081633
        k(    4) = (   0.0000000   0.1428571  -0.0000000), wk =   0.0081633
        k(    5) = (   0.0000000   0.1428571   0.2000000), wk =   0.0081633
        k(    6) = (   0.0000000   0.1428571   0.4000000), wk =   0.0081633
        k(    7) = (   0.0000000   0.1428571  -0.4000000), wk =   0.0081633
        k(    8) = (   0.0000000   0.1428571  -0.2000000), wk =   0.0081633
        k(    9) = (   0.0000000   0.2857143  -0.0000000), wk =   0.0081633
        k(   10) = (   0.0000000   0.2857143   0.2000000), wk =   0.0081633
        k(   11) = (   0.0000000   0.2857143   0.4000000), wk =   0.0081633
        k(   12) = (   0.0000000   0.2857143  -0.4000000), wk =   0.0081633
        k(   13) = (   0.0000000   0.2857143  -0.2000000), wk =   0.0081633
        k(   14) = (   0.0000000   0.4285714  -0.0000000), wk =   0.0081633
        k(   15) = (   0.0000000   0.4285714   0.2000000), wk =   0.0081633
        k(   16) = (   0.0000000   0.4285714   0.4000000), wk =   0.0081633
        k(   17) = (   0.0000000   0.4285714  -0.4000000), wk =   0.0081633
        k(   18) = (   0.0000000   0.4285714  -0.2000000), wk =   0.0081633
        k(   19) = (   0.1428571   0.0000000   0.0000000), wk =   0.0081633
        k(   20) = (   0.1428571   0.0000000   0.2000000), wk =   0.0081633
        k(   21) = (   0.1428571   0.0000000   0.4000000), wk =   0.0081633
        k(   22) = (   0.1428571   0.0000000  -0.4000000), wk =   0.0081633
        k(   23) = (   0.1428571   0.0000000  -0.2000000), wk =   0.0081633
        k(   24) = (   0.1428571   0.1428571   0.0000000), wk =   0.0081633
        k(   25) = (   0.1428571   0.1428571   0.2000000), wk =   0.0081633
        k(   26) = (   0.1428571   0.1428571   0.4000000), wk =   0.0081633
        k(   27) = (   0.1428571   0.1428571  -0.4000000), wk =   0.0081633
        k(   28) = (   0.1428571   0.1428571  -0.2000000), wk =   0.0081633
        k(   29) = (   0.1428571   0.2857143   0.0000000), wk =   0.0081633
        k(   30) = (   0.1428571   0.2857143   0.2000000), wk =   0.0081633
        k(   31) = (   0.1428571   0.2857143   0.4000000), wk =   0.0081633
        k(   32) = (   0.1428571   0.2857143  -0.4000000), wk =   0.0081633
        k(   33) = (   0.1428571   0.2857143  -0.2000000), wk =   0.0081633
        k(   34) = (   0.1428571   0.4285714   0.0000000), wk =   0.0081633
        k(   35) = (   0.1428571   0.4285714   0.2000000), wk =   0.0081633
        k(   36) = (   0.1428571   0.4285714   0.4000000), wk =   0.0081633
        k(   37) = (   0.1428571   0.4285714  -0.4000000), wk =   0.0081633
        k(   38) = (   0.1428571   0.4285714  -0.2000000), wk =   0.0081633
        k(   39) = (   0.1428571  -0.4285714  -0.0000000), wk =   0.0081633
        k(   40) = (   0.1428571  -0.4285714   0.2000000), wk =   0.0081633
        k(   41) = (   0.1428571  -0.4285714   0.4000000), wk =   0.0081633
        k(   42) = (   0.1428571  -0.4285714  -0.4000000), wk =   0.0081633
        k(   43) = (   0.1428571  -0.4285714  -0.2000000), wk =   0.0081633
        k(   44) = (   0.1428571  -0.2857143   0.0000000), wk =   0.0081633
        k(   45) = (   0.1428571  -0.2857143   0.2000000), wk =   0.0081633
        k(   46) = (   0.1428571  -0.2857143   0.4000000), wk =   0.0081633
        k(   47) = (   0.1428571  -0.2857143  -0.4000000), wk =   0.0081633
        k(   48) = (   0.1428571  -0.2857143  -0.2000000), wk =   0.0081633
        k(   49) = (   0.1428571  -0.1428571   0.0000000), wk =   0.0081633
        k(   50) = (   0.1428571  -0.1428571   0.2000000), wk =   0.0081633
        k(   51) = (   0.1428571  -0.1428571   0.4000000), wk =   0.0081633
        k(   52) = (   0.1428571  -0.1428571  -0.4000000), wk =   0.0081633
        k(   53) = (   0.1428571  -0.1428571  -0.2000000), wk =   0.0081633
        k(   54) = (   0.2857143   0.0000000   0.0000000), wk =   0.0081633
        k(   55) = (   0.2857143   0.0000000   0.2000000), wk =   0.0081633
        k(   56) = (   0.2857143   0.0000000   0.4000000), wk =   0.0081633
        k(   57) = (   0.2857143   0.0000000  -0.4000000), wk =   0.0081633
        k(   58) = (   0.2857143   0.0000000  -0.2000000), wk =   0.0081633
        k(   59) = (   0.2857143   0.1428571   0.0000000), wk =   0.0081633
        k(   60) = (   0.2857143   0.1428571   0.2000000), wk =   0.0081633
        k(   61) = (   0.2857143   0.1428571   0.4000000), wk =   0.0081633
        k(   62) = (   0.2857143   0.1428571  -0.4000000), wk =   0.0081633
        k(   63) = (   0.2857143   0.1428571  -0.2000000), wk =   0.0081633
        k(   64) = (   0.2857143   0.2857143   0.0000000), wk =   0.0081633
        k(   65) = (   0.2857143   0.2857143   0.2000000), wk =   0.0081633
        k(   66) = (   0.2857143   0.2857143   0.4000000), wk =   0.0081633
        k(   67) = (   0.2857143   0.2857143  -0.4000000), wk =   0.0081633
        k(   68) = (   0.2857143   0.2857143  -0.2000000), wk =   0.0081633
        k(   69) = (   0.2857143   0.4285714   0.0000000), wk =   0.0081633
        k(   70) = (   0.2857143   0.4285714   0.2000000), wk =   0.0081633
        k(   71) = (   0.2857143   0.4285714   0.4000000), wk =   0.0081633
        k(   72) = (   0.2857143   0.4285714  -0.4000000), wk =   0.0081633
        k(   73) = (   0.2857143   0.4285714  -0.2000000), wk =   0.0081633
        k(   74) = (   0.2857143  -0.4285714  -0.0000000), wk =   0.0081633
        k(   75) = (   0.2857143  -0.4285714   0.2000000), wk =   0.0081633
        k(   76) = (   0.2857143  -0.4285714   0.4000000), wk =   0.0081633
        k(   77) = (   0.2857143  -0.4285714  -0.4000000), wk =   0.0081633
        k(   78) = (   0.2857143  -0.4285714  -0.2000000), wk =   0.0081633
        k(   79) = (   0.2857143  -0.2857143   0.0000000), wk =   0.0081633
        k(   80) = (   0.2857143  -0.2857143   0.2000000), wk =   0.0081633
        k(   81) = (   0.2857143  -0.2857143   0.4000000), wk =   0.0081633
        k(   82) = (   0.2857143  -0.2857143  -0.4000000), wk =   0.0081633
        k(   83) = (   0.2857143  -0.2857143  -0.2000000), wk =   0.0081633
        k(   84) = (   0.2857143  -0.1428571   0.0000000), wk =   0.0081633
        k(   85) = (   0.2857143  -0.1428571   0.2000000), wk =   0.0081633
        k(   86) = (   0.2857143  -0.1428571   0.4000000), wk =   0.0081633
        k(   87) = (   0.2857143  -0.1428571  -0.4000000), wk =   0.0081633
        k(   88) = (   0.2857143  -0.1428571  -0.2000000), wk =   0.0081633
        k(   89) = (   0.4285714   0.0000000   0.0000000), wk =   0.0081633
        k(   90) = (   0.4285714   0.0000000   0.2000000), wk =   0.0081633
        k(   91) = (   0.4285714   0.0000000   0.4000000), wk =   0.0081633
        k(   92) = (   0.4285714   0.0000000  -0.4000000), wk =   0.0081633
        k(   93) = (   0.4285714   0.0000000  -0.2000000), wk =   0.0081633
        k(   94) = (   0.4285714   0.1428571   0.0000000), wk =   0.0081633
        k(   95) = (   0.4285714   0.1428571   0.2000000), wk =   0.0081633
        k(   96) = (   0.4285714   0.1428571   0.4000000), wk =   0.0081633
        k(   97) = (   0.4285714   0.1428571  -0.4000000), wk =   0.0081633
        k(   98) = (   0.4285714   0.1428571  -0.2000000), wk =   0.0081633
        k(   99) = (   0.4285714   0.2857143   0.0000000), wk =   0.0081633
        k(  100) = (   0.4285714   0.2857143   0.2000000), wk =   0.0081633
        k(  101) = (   0.4285714   0.2857143   0.4000000), wk =   0.0081633
        k(  102) = (   0.4285714   0.2857143  -0.4000000), wk =   0.0081633
        k(  103) = (   0.4285714   0.2857143  -0.2000000), wk =   0.0081633
        k(  104) = (   0.4285714   0.4285714   0.0000000), wk =   0.0081633
        k(  105) = (   0.4285714   0.4285714   0.2000000), wk =   0.0081633
        k(  106) = (   0.4285714   0.4285714   0.4000000), wk =   0.0081633
        k(  107) = (   0.4285714   0.4285714  -0.4000000), wk =   0.0081633
        k(  108) = (   0.4285714   0.4285714  -0.2000000), wk =   0.0081633
        k(  109) = (   0.4285714  -0.4285714  -0.0000000), wk =   0.0081633
        k(  110) = (   0.4285714  -0.4285714   0.2000000), wk =   0.0081633
        k(  111) = (   0.4285714  -0.4285714   0.4000000), wk =   0.0081633
        k(  112) = (   0.4285714  -0.4285714  -0.4000000), wk =   0.0081633
        k(  113) = (   0.4285714  -0.4285714  -0.2000000), wk =   0.0081633
        k(  114) = (   0.4285714  -0.2857143   0.0000000), wk =   0.0081633
        k(  115) = (   0.4285714  -0.2857143   0.2000000), wk =   0.0081633
        k(  116) = (   0.4285714  -0.2857143   0.4000000), wk =   0.0081633
        k(  117) = (   0.4285714  -0.2857143  -0.4000000), wk =   0.0081633
        k(  118) = (   0.4285714  -0.2857143  -0.2000000), wk =   0.0081633
        k(  119) = (   0.4285714  -0.1428571   0.0000000), wk =   0.0081633
        k(  120) = (   0.4285714  -0.1428571   0.2000000), wk =   0.0081633
        k(  121) = (   0.4285714  -0.1428571   0.4000000), wk =   0.0081633
        k(  122) = (   0.4285714  -0.1428571  -0.4000000), wk =   0.0081633
        k(  123) = (   0.4285714  -0.1428571  -0.2000000), wk =   0.0081633

     Dense  grid:   375767 G-vectors     FFT dimensions: (  81,  90, 120)

     Smooth grid:   132819 G-vectors     FFT dimensions: (  60,  60,  90)

     Dynamical RAM for                 wfc:      41.05 MB

     Dynamical RAM for     wfc (w. buffer):   10140.27 MB

     Dynamical RAM for             U proj.:      12.67 MB

     Dynamical RAM for  U proj. (w. buff.):    3129.71 MB

     Dynamical RAM for           str. fact:      17.20 MB

     Dynamical RAM for           local pot:       0.00 MB

     Dynamical RAM for          nlocal pot:      86.16 MB

     Dynamical RAM for                qrad:       9.63 MB

     Dynamical RAM for          rho,v,vnew:      74.45 MB

     Dynamical RAM for               rhoin:      24.82 MB

     Dynamical RAM for            rho*nmix:     183.48 MB

     Dynamical RAM for           G-vectors:      22.51 MB

     Dynamical RAM for          h,s,v(r/c):       4.81 MB

     Dynamical RAM for          <psi|beta>:       0.84 MB

     Dynamical RAM for                 psi:      82.11 MB

     Dynamical RAM for                hpsi:      82.11 MB

     Dynamical RAM for                spsi:      82.11 MB

     Dynamical RAM for      wfcinit/wfcrot:      82.71 MB

     Dynamical RAM for           addusdens:    1186.89 MB

     Dynamical RAM for          addusforce:    1404.93 MB

     Dynamical RAM for         addusstress:    1161.08 MB

     Estimated static dynamical RAM per process >      13.25 GB

     Estimated max dynamical RAM per process >      14.80 GB

     Atomic positions and unit cell read from directory:
     ./out/aiida.save/
     Atomic positions from file used, from input discarded
 
     New effective cutoffs (rho, wfc):  424.28   53.04

     Check: negative core charge=   -0.000005
     Generating pointlists ...
     new r_m :   0.1147 (alat units)  1.4697 (a.u.) for type    1
     new r_m :   0.0989 (alat units)  1.2673 (a.u.) for type    2
     new r_m :   0.0989 (alat units)  1.2673 (a.u.) for type    3

     The initial density is read from file :
     ./out/aiida.save/charge-density


     negative rho (up, down):  1.119E+02 9.545E+01

     HUBBARD ENERGY =    2.2731  (Ry)

     STARTING HUBBARD OCCUPATIONS:

     =================== HUBBARD OCCUPATIONS ===================
     ------------------------ ATOM    1 ------------------------
     Tr[ns(  1)] (up, down, total) =   1.70763  1.54553  3.25316
     Atomic magnetic moment for atom   1 =   0.16211
     SPIN  1
     eigenvalues:
       0.275  0.310  0.355  0.371  0.397
     eigenvectors (columns):
       0.535  0.729  0.182 -0.010 -0.386
       0.469 -0.350  0.626  0.439  0.272
       0.583 -0.126 -0.746  0.210  0.211
       0.392 -0.430  0.102 -0.781 -0.202
      -0.042 -0.380 -0.094  0.391 -0.832
     occupation matrix ns (before diag.):
       0.314 -0.013 -0.024  0.001  0.028
      -0.013  0.338 -0.020 -0.029 -0.011
      -0.024 -0.020  0.330 -0.025 -0.006
       0.001 -0.029 -0.025  0.346 -0.004
       0.028 -0.011 -0.006 -0.004  0.380
     SPIN  2
     eigenvalues:
       0.242  0.262  0.327  0.337  0.378
     eigenvectors (columns):
      -0.538  0.708  0.153  0.161  0.400
      -0.386 -0.325  0.483  0.610 -0.374
      -0.645 -0.189  0.025 -0.691 -0.264
      -0.376 -0.429 -0.661  0.295  0.389
       0.067 -0.416  0.553 -0.194  0.692
     occupation matrix ns (before diag.):
       0.278 -0.009 -0.027  0.011  0.036
      -0.009  0.318 -0.024 -0.027 -0.021
      -0.027 -0.024  0.298 -0.033 -0.009
       0.011 -0.027 -0.033  0.312  0.004
       0.036 -0.021 -0.009  0.004  0.340
     ------------------------ ATOM    2 ------------------------
     Tr[ns(  2)] (up, down, total) =   1.70763  1.54553  3.25316
     Atomic magnetic moment for atom   2 =   0.16211
     SPIN  1
     eigenvalues:
       0.275  0.310  0.355  0.371  0.397
     eigenvectors (columns):
       0.535  0.729  0.182 -0.010 -0.386
       0.469 -0.350  0.626  0.439  0.272
       0.583 -0.126 -0.746  0.210  0.211
       0.392 -0.430  0.102 -0.781 -0.202
      -0.042 -0.380 -0.094  0.391 -0.832
     occupation matrix ns (before diag.):
       0.314 -0.013 -0.024  0.001  0.028
      -0.013  0.338 -0.020 -0.029 -0.011
      -0.024 -0.020  0.330 -0.025 -0.006
       0.001 -0.029 -0.025  0.346 -0.004
       0.028 -0.011 -0.006 -0.004  0.380
     SPIN  2
     eigenvalues:
       0.242  0.262  0.327  0.337  0.378
     eigenvectors (columns):
      -0.538  0.708  0.153  0.161  0.400
      -0.386 -0.325  0.483  0.610 -0.374
      -0.645 -0.189  0.025 -0.691 -0.264
      -0.376 -0.429 -0.661  0.295  0.389
       0.067 -0.416  0.553 -0.194  0.692
     occupation matrix ns (before diag.):
       0.278 -0.009 -0.027  0.011  0.036
      -0.009  0.318 -0.024 -0.027 -0.021
      -0.027 -0.024  0.298 -0.033 -0.009
       0.011 -0.027 -0.033  0.312  0.004
       0.036 -0.021 -0.009  0.004  0.340
     ------------------------ ATOM    3 ------------------------
     Tr[ns(  3)] (up, down, total) =   1.69975  1.58272  3.28247
     Atomic magnetic moment for atom   3 =   0.11703
     SPIN  1
     eigenvalues:
       0.289  0.308  0.330  0.378  0.395
     eigenvectors (columns):
       0.656  0.039 -0.725  0.126  0.163
       0.345 -0.526  0.458  0.477  0.409
      -0.164 -0.502 -0.184 -0.674  0.484
       0.094 -0.653 -0.123 -0.036 -0.741
      -0.644 -0.210 -0.464  0.549  0.153
     occupation matrix ns (before diag.):
       0.315 -0.001  0.006 -0.010  0.022
      -0.001  0.341 -0.006 -0.030  0.023
       0.006 -0.006  0.360 -0.029 -0.020
      -0.010 -0.030 -0.029  0.356 -0.009
       0.022  0.023 -0.020 -0.009  0.328
     SPIN  2
     eigenvalues:
       0.261  0.289  0.313  0.344  0.376
     eigenvectors (columns):
       0.780 -0.059 -0.565  0.098 -0.244
       0.302 -0.314  0.656  0.563 -0.250
      -0.136 -0.430  0.063 -0.550 -0.700
       0.247 -0.663  0.085 -0.325  0.622
      -0.469 -0.523 -0.489  0.515 -0.036
     occupation matrix ns (before diag.):
       0.285 -0.007  0.014 -0.021  0.020
      -0.007  0.320  0.000 -0.024  0.013
       0.014  0.000  0.348 -0.027 -0.016
      -0.021 -0.024 -0.027  0.327 -0.009
       0.020  0.013 -0.016 -0.009  0.303
     ------------------------ ATOM    4 ------------------------
     Tr[ns(  4)] (up, down, total) =   1.69975  1.58272  3.28247
     Atomic magnetic moment for atom   4 =   0.11703
     SPIN  1
     eigenvalues:
       0.289  0.308  0.330  0.378  0.395
     eigenvectors (columns):
       0.656  0.039 -0.725  0.126  0.163
       0.345 -0.526  0.458  0.477  0.409
      -0.164 -0.502 -0.184 -0.674  0.484
       0.094 -0.653 -0.123 -0.036 -0.741
      -0.644 -0.210 -0.464  0.549  0.153
     occupation matrix ns (before diag.):
       0.315 -0.001  0.006 -0.010  0.022
      -0.001  0.341 -0.006 -0.030  0.023
       0.006 -0.006  0.360 -0.029 -0.020
      -0.010 -0.030 -0.029  0.356 -0.009
       0.022  0.023 -0.020 -0.009  0.328
     SPIN  2
     eigenvalues:
       0.261  0.289  0.313  0.344  0.376
     eigenvectors (columns):
       0.780 -0.059 -0.565  0.098 -0.244
       0.302 -0.314  0.656  0.563 -0.250
      -0.136 -0.430  0.063 -0.550 -0.700
       0.247 -0.663  0.085 -0.325  0.622
      -0.469 -0.523 -0.489  0.515 -0.036
     occupation matrix ns (before diag.):
       0.285 -0.007  0.014 -0.021  0.020
      -0.007  0.320  0.000 -0.024  0.013
       0.014  0.000  0.348 -0.027 -0.016
      -0.021 -0.024 -0.027  0.327 -0.009
       0.020  0.013 -0.016 -0.009  0.303
     ------------------------ ATOM    5 ------------------------
     Tr[ns(  5)] (up, down, total) =   1.69445  1.54946  3.24390
     Atomic magnetic moment for atom   5 =   0.14499
     SPIN  1
     eigenvalues:
       0.297  0.307  0.337  0.367  0.387
     eigenvectors (columns):
       0.655 -0.387  0.527  0.011 -0.378
       0.085 -0.729 -0.665 -0.131 -0.039
       0.561  0.491 -0.353 -0.564 -0.039
       0.499  0.086 -0.189  0.652  0.532
       0.010 -0.266  0.345 -0.490  0.756
     occupation matrix ns (before diag.):
       0.322 -0.010 -0.009 -0.022 -0.018
      -0.010  0.322  0.011 -0.003 -0.005
      -0.009  0.011  0.327 -0.025  0.010
      -0.022 -0.003 -0.025  0.354  0.011
      -0.018 -0.005  0.010  0.011  0.370
     SPIN  2
     eigenvalues:
       0.252  0.281  0.324  0.343  0.348
     eigenvectors (columns):
       0.676 -0.345  0.561  0.033 -0.329
       0.163 -0.714 -0.597 -0.326  0.031
       0.493  0.594 -0.283 -0.549 -0.149
       0.523  0.107 -0.266  0.568  0.567
      -0.008 -0.085  0.421 -0.518  0.740
     occupation matrix ns (before diag.):
       0.289 -0.019 -0.014 -0.028 -0.007
      -0.019  0.302  0.016 -0.006  0.001
      -0.014  0.016  0.298 -0.029  0.005
      -0.028 -0.006 -0.029  0.318  0.005
      -0.007  0.001  0.005  0.005  0.342
     ------------------------ ATOM    6 ------------------------
     Tr[ns(  6)] (up, down, total) =   1.69445  1.54946  3.24390
     Atomic magnetic moment for atom   6 =   0.14499
     SPIN  1
     eigenvalues:
       0.297  0.307  0.337  0.367  0.387
     eigenvectors (columns):
       0.655 -0.387  0.527  0.011 -0.378
       0.085 -0.729 -0.665 -0.131 -0.039
       0.561  0.491 -0.353 -0.564 -0.039
       0.499  0.086 -0.189  0.652  0.532
       0.010 -0.266  0.345 -0.490  0.756
     occupation matrix ns (before diag.):
       0.322 -0.010 -0.009 -0.022 -0.018
      -0.010  0.322  0.011 -0.003 -0.005
      -0.009  0.011  0.327 -0.025  0.010
      -0.022 -0.003 -0.025  0.354  0.011
      -0.018 -0.005  0.010  0.011  0.370
     SPIN  2
     eigenvalues:
       0.252  0.281  0.324  0.343  0.348
     eigenvectors (columns):
       0.676 -0.345  0.561  0.033 -0.329
       0.163 -0.714 -0.597 -0.326  0.031
       0.493  0.594 -0.283 -0.549 -0.149
       0.523  0.107 -0.266  0.568  0.567
      -0.008 -0.085  0.421 -0.518  0.740
     occupation matrix ns (before diag.):
       0.289 -0.019 -0.014 -0.028 -0.007
      -0.019  0.302  0.016 -0.006  0.001
      -0.014  0.016  0.298 -0.029  0.005
      -0.028 -0.006 -0.029  0.318  0.005
      -0.007  0.001  0.005  0.005  0.342
     ------------------------ ATOM    7 ------------------------
     Tr[ns(  7)] (up, down, total) =   4.90850  3.25971  8.16821
     Atomic magnetic moment for atom   7 =   1.64879
     SPIN  1
     eigenvalues:
       0.948  0.981  0.993  0.993  0.994
     eigenvectors (columns):
       0.705 -0.604  0.331 -0.120 -0.120
       0.039 -0.275 -0.121  0.854  0.424
       0.305 -0.074 -0.899 -0.015 -0.304
       0.568  0.728  0.177  0.307 -0.148
       0.294  0.155 -0.187 -0.403  0.832
     occupation matrix ns (before diag.):
       0.966 -0.003 -0.010 -0.013 -0.008
      -0.003  0.992 -0.001  0.001  0.000
      -0.010 -0.001  0.989 -0.007 -0.004
      -0.013  0.001 -0.007  0.972 -0.009
      -0.008  0.000 -0.004 -0.009  0.990
     SPIN  2
     eigenvalues:
       0.132  0.153  0.990  0.991  0.994
     eigenvectors (columns):
      -0.577  0.687 -0.375 -0.232 -0.012
      -0.376  0.077  0.169  0.884  0.206
      -0.097  0.328  0.855 -0.150 -0.359
       0.692  0.591 -0.175  0.322 -0.196
       0.192  0.254  0.263 -0.197  0.889
     occupation matrix ns (before diag.):
       0.309 -0.231 -0.237  0.003 -0.051
      -0.231  0.864 -0.053  0.185  0.046
      -0.237 -0.053  0.892 -0.105 -0.055
       0.003  0.185 -0.105  0.288 -0.241
      -0.051  0.046 -0.055 -0.241  0.908
     ------------------------ ATOM    8 ------------------------
     Tr[ns(  8)] (up, down, total) =   4.90850  3.25971  8.16821
     Atomic magnetic moment for atom   8 =   1.64879
     SPIN  1
     eigenvalues:
       0.948  0.981  0.993  0.993  0.994
     eigenvectors (columns):
       0.705 -0.604  0.331 -0.120 -0.120
       0.039 -0.275 -0.121  0.854  0.424
       0.305 -0.074 -0.899 -0.015 -0.304
       0.568  0.728  0.177  0.307 -0.148
       0.294  0.155 -0.187 -0.403  0.832
     occupation matrix ns (before diag.):
       0.966 -0.003 -0.010 -0.013 -0.008
      -0.003  0.992 -0.001  0.001  0.000
      -0.010 -0.001  0.989 -0.007 -0.004
      -0.013  0.001 -0.007  0.972 -0.009
      -0.008  0.000 -0.004 -0.009  0.990
     SPIN  2
     eigenvalues:
       0.132  0.153  0.990  0.991  0.994
     eigenvectors (columns):
      -0.577  0.687 -0.375 -0.232 -0.012
      -0.376  0.077  0.169  0.884  0.206
      -0.097  0.328  0.855 -0.150 -0.359
       0.692  0.591 -0.175  0.322 -0.196
       0.192  0.254  0.263 -0.197  0.889
     occupation matrix ns (before diag.):
       0.309 -0.231 -0.237  0.003 -0.051
      -0.231  0.864 -0.053  0.185  0.046
      -0.237 -0.053  0.892 -0.105 -0.055
       0.003  0.185 -0.105  0.288 -0.241
      -0.051  0.046 -0.055 -0.241  0.908
     ------------------------ ATOM    9 ------------------------
     Tr[ns(  9)] (up, down, total) =   4.72275  3.41368  8.13643
     Atomic magnetic moment for atom   9 =   1.30907
     SPIN  1
     eigenvalues:
       0.759  0.985  0.992  0.993  0.994
     eigenvectors (columns):
       0.933  0.249 -0.071 -0.053  0.243
       0.087  0.434 -0.281  0.044 -0.850
       0.192 -0.119  0.912  0.048 -0.340
       0.280 -0.847 -0.281 -0.153 -0.319
       0.081 -0.132 -0.079  0.985  0.018
     occupation matrix ns (before diag.):
       0.789 -0.020 -0.042 -0.059 -0.017
      -0.020  0.990 -0.003 -0.003 -0.001
      -0.042 -0.003  0.983 -0.013 -0.004
      -0.059 -0.003 -0.013  0.969 -0.006
      -0.017 -0.001 -0.004 -0.006  0.991
     SPIN  2
     eigenvalues:
       0.167  0.272  0.990  0.991  0.994
     eigenvectors (columns):
      -0.260  0.935 -0.017 -0.234  0.052
      -0.145  0.119 -0.164  0.461 -0.852
       0.037  0.202  0.280  0.838  0.421
       0.928  0.260 -0.258  0.014 -0.064
       0.220  0.050  0.910 -0.175 -0.300
     occupation matrix ns (before diag.):
       0.307 -0.111 -0.128  0.024  0.014
      -0.111  0.965 -0.014  0.088  0.023
      -0.128 -0.014  0.961 -0.066 -0.015
       0.024  0.088 -0.066  0.232 -0.178
       0.014  0.023 -0.015 -0.178  0.949
     ------------------------ ATOM   10 ------------------------
     Tr[ns( 10)] (up, down, total) =   4.72275  3.41368  8.13643
     Atomic magnetic moment for atom  10 =   1.30907
     SPIN  1
     eigenvalues:
       0.759  0.985  0.992  0.993  0.994
     eigenvectors (columns):
       0.933  0.249 -0.071 -0.053  0.243
       0.087  0.434 -0.281  0.044 -0.850
       0.192 -0.119  0.912  0.048 -0.340
       0.280 -0.847 -0.281 -0.153 -0.319
       0.081 -0.132 -0.079  0.985  0.018
     occupation matrix ns (before diag.):
       0.789 -0.020 -0.042 -0.059 -0.017
      -0.020  0.990 -0.003 -0.003 -0.001
      -0.042 -0.003  0.983 -0.013 -0.004
      -0.059 -0.003 -0.013  0.969 -0.006
      -0.017 -0.001 -0.004 -0.006  0.991
     SPIN  2
     eigenvalues:
       0.167  0.272  0.990  0.991  0.994
     eigenvectors (columns):
      -0.260  0.935 -0.017 -0.234  0.052
      -0.145  0.119 -0.164  0.461 -0.852
       0.037  0.202  0.280  0.838  0.421
       0.928  0.260 -0.258  0.014 -0.064
       0.220  0.050  0.910 -0.175 -0.300
     occupation matrix ns (before diag.):
       0.307 -0.111 -0.128  0.024  0.014
      -0.111  0.965 -0.014  0.088  0.023
      -0.128 -0.014  0.961 -0.066 -0.015
       0.024  0.088 -0.066  0.232 -0.178
       0.014  0.023 -0.015 -0.178  0.949

     Number of occupied Hubbard levels =   52.1684

     Atomic wfc used for Hubbard projectors are orthogonalized

     Starting wfcs from file
     Checking if some PAW data can be deallocated... 

     total cpu time spent up to now is       45.7 secs

     Self-consistent Calculation
[tb_dev] Currently allocated     2.58E+00 Mbytes, locked:    0 /   3
[tb_pin] Currently allocated     0.00E+00 Mbytes, locked:    0 /   0

     iteration #  1     ecut=    50.00 Ry     beta= 0.70
     Davidson diagonalization with overlap

---- Real-time Memory Report at c_bands before calling an iterative solver
         14091 MiB given to the printing process from OS
             0 MiB allocation reported by mallinfo(arena+hblkhd)
        414155 MiB available memory on the node where the printing process lives
     GPU memory used/free/total (MiB): 3166 / 61778 / 64944
------------------
     ethr =  1.00E-05,  avg # of iterations = 34.7

     =================== HUBBARD OCCUPATIONS ===================
     ------------------------ ATOM    1 ------------------------
     Tr[ns(  1)] (up, down, total) =   4.09090  4.08872  8.17962
     Atomic magnetic moment for atom   1 =   0.00219
     SPIN  1
     eigenvalues:
       0.794  0.803  0.820  0.829  0.845
     eigenvectors (columns):
       0.454  0.386 -0.446 -0.278  0.608
      -0.323 -0.113  0.063  0.664  0.662
       0.578  0.451  0.330  0.551 -0.224
      -0.534  0.748  0.322 -0.222  0.059
      -0.267  0.275 -0.765  0.361 -0.371
     occupation matrix ns (before diag.):
       0.822  0.013 -0.015  0.003 -0.005
       0.013  0.832  0.005 -0.003 -0.006
      -0.015  0.005  0.812  0.001  0.006
       0.003 -0.003  0.001  0.804 -0.009
      -0.005 -0.006  0.006 -0.009  0.822
     SPIN  2
     eigenvalues:
       0.792  0.803  0.820  0.829  0.845
     eigenvectors (columns):
      -0.483  0.364 -0.447 -0.301 -0.586
       0.326 -0.087 -0.004  0.669 -0.662
      -0.591  0.424  0.294  0.574  0.232
       0.494  0.776  0.328 -0.205 -0.068
       0.260  0.278 -0.779  0.300  0.399
     occupation matrix ns (before diag.):
       0.821  0.013 -0.015  0.003 -0.005
       0.013  0.832  0.006 -0.003 -0.007
      -0.015  0.006  0.811  0.001  0.006
       0.003 -0.003  0.001  0.803 -0.009
      -0.005 -0.007  0.006 -0.009  0.822
     ------------------------ ATOM    2 ------------------------
     Tr[ns(  2)] (up, down, total) =   4.09090  4.08872  8.17962
     Atomic magnetic moment for atom   2 =   0.00219
     SPIN  1
     eigenvalues:
       0.794  0.803  0.820  0.829  0.845
     eigenvectors (columns):
       0.454  0.386 -0.446 -0.278  0.608
      -0.323 -0.113  0.063  0.664  0.662
       0.578  0.451  0.330  0.551 -0.224
      -0.534  0.748  0.322 -0.222  0.059
      -0.267  0.275 -0.765  0.361 -0.371
     occupation matrix ns (before diag.):
       0.822  0.013 -0.015  0.003 -0.005
       0.013  0.832  0.005 -0.003 -0.006
      -0.015  0.005  0.812  0.001  0.006
       0.003 -0.003  0.001  0.804 -0.009
      -0.005 -0.006  0.006 -0.009  0.822
     SPIN  2
     eigenvalues:
       0.792  0.803  0.820  0.829  0.845
     eigenvectors (columns):
      -0.483  0.364 -0.447 -0.301 -0.586
       0.326 -0.087 -0.004  0.669 -0.662
      -0.591  0.424  0.294  0.574  0.232
       0.494  0.776  0.328 -0.205 -0.068
       0.260  0.278 -0.779  0.300  0.399
     occupation matrix ns (before diag.):
       0.821  0.013 -0.015  0.003 -0.005
       0.013  0.832  0.006 -0.003 -0.007
      -0.015  0.006  0.811  0.001  0.006
       0.003 -0.003  0.001  0.803 -0.009
      -0.005 -0.007  0.006 -0.009  0.822
     ------------------------ ATOM    3 ------------------------
     Tr[ns(  3)] (up, down, total) =   3.99324  4.00275  7.99599
     Atomic magnetic moment for atom   3 =  -0.00951
     SPIN  1
     eigenvalues:
       0.750  0.777  0.787  0.822  0.857
     eigenvectors (columns):
      -0.032 -0.561  0.008 -0.382 -0.734
      -0.267  0.728  0.408 -0.255 -0.408
       0.037  0.066 -0.056  0.860 -0.501
       0.280  0.381 -0.831 -0.213 -0.201
       0.921  0.073  0.374 -0.057 -0.063
     occupation matrix ns (before diag.):
       0.827  0.028  0.015  0.016  0.006
       0.028  0.793  0.007  0.008  0.011
       0.015  0.007  0.831  0.000 -0.001
       0.016  0.008  0.000  0.787 -0.008
       0.006  0.011 -0.001 -0.008  0.756
     SPIN  2
     eigenvalues:
       0.749  0.777  0.787  0.832  0.857
     eigenvectors (columns):
      -0.027 -0.570  0.066 -0.423 -0.701
      -0.263  0.749  0.365 -0.299 -0.384
       0.041  0.099 -0.126  0.800 -0.576
       0.274  0.307 -0.846 -0.300 -0.159
       0.924  0.101  0.362 -0.043 -0.057
     occupation matrix ns (before diag.):
       0.826  0.029  0.014  0.016  0.005
       0.029  0.793  0.005  0.009  0.010
       0.014  0.005  0.839 -0.005 -0.001
       0.016  0.009 -0.005  0.789 -0.009
       0.005  0.010 -0.001 -0.009  0.755
     ------------------------ ATOM    4 ------------------------
     Tr[ns(  4)] (up, down, total) =   3.99324  4.00275  7.99599
     Atomic magnetic moment for atom   4 =  -0.00951
     SPIN  1
     eigenvalues:
       0.750  0.777  0.787  0.822  0.857
     eigenvectors (columns):
      -0.032 -0.561  0.008 -0.382 -0.734
      -0.267  0.728  0.408 -0.255 -0.408
       0.037  0.066 -0.056  0.860 -0.501
       0.280  0.381 -0.831 -0.213 -0.201
       0.921  0.073  0.374 -0.057 -0.063
     occupation matrix ns (before diag.):
       0.827  0.028  0.015  0.016  0.006
       0.028  0.793  0.007  0.008  0.011
       0.015  0.007  0.831  0.000 -0.001
       0.016  0.008  0.000  0.787 -0.008
       0.006  0.011 -0.001 -0.008  0.756
     SPIN  2
     eigenvalues:
       0.749  0.777  0.787  0.832  0.857
     eigenvectors (columns):
      -0.027 -0.570  0.066 -0.423 -0.701
      -0.263  0.749  0.365 -0.299 -0.384
       0.041  0.099 -0.126  0.800 -0.576
       0.274  0.307 -0.846 -0.300 -0.159
       0.924  0.101  0.362 -0.043 -0.057
     occupation matrix ns (before diag.):
       0.826  0.029  0.014  0.016  0.005
       0.029  0.793  0.005  0.009  0.010
       0.014  0.005  0.839 -0.005 -0.001
       0.016  0.009 -0.005  0.789 -0.009
       0.005  0.010 -0.001 -0.009  0.755
     ------------------------ ATOM    5 ------------------------
     Tr[ns(  5)] (up, down, total) =   3.87525  3.87049  7.74575
     Atomic magnetic moment for atom   5 =   0.00476
     SPIN  1
     eigenvalues:
       0.748  0.758  0.772  0.786  0.812
     eigenvectors (columns):
       0.054  0.079  0.923 -0.362  0.088
       0.870 -0.380  0.066  0.256  0.166
       0.084  0.548 -0.121  0.026  0.823
       0.451  0.383 -0.294 -0.678 -0.323
      -0.170 -0.634 -0.206 -0.586  0.428
     occupation matrix ns (before diag.):
       0.774 -0.001  0.002  0.001  0.005
      -0.001  0.754  0.007 -0.012  0.001
       0.002  0.007  0.795 -0.015  0.019
       0.001 -0.012 -0.015  0.775  0.005
       0.005  0.001  0.019  0.005  0.778
     SPIN  2
     eigenvalues:
       0.747  0.757  0.770  0.785  0.812
     eigenvectors (columns):
       0.063  0.159  0.916 -0.346  0.105
       0.858 -0.407  0.090  0.255  0.157
       0.107  0.525 -0.180  0.034  0.825
       0.458  0.341 -0.315 -0.689 -0.317
      -0.197 -0.646 -0.144 -0.582  0.429
     occupation matrix ns (before diag.):
       0.772 -0.001  0.002  0.001  0.006
      -0.001  0.753  0.006 -0.012  0.001
       0.002  0.006  0.795 -0.015  0.019
       0.001 -0.012 -0.015  0.775  0.005
       0.006  0.001  0.019  0.005  0.776
     ------------------------ ATOM    6 ------------------------
     Tr[ns(  6)] (up, down, total) =   3.87525  3.87049  7.74575
     Atomic magnetic moment for atom   6 =   0.00476
     SPIN  1
     eigenvalues:
       0.748  0.758  0.772  0.786  0.812
     eigenvectors (columns):
       0.054  0.079  0.923 -0.362  0.088
       0.870 -0.380  0.066  0.256  0.166
       0.084  0.548 -0.121  0.026  0.823
       0.451  0.383 -0.294 -0.678 -0.323
      -0.170 -0.634 -0.206 -0.586  0.428
     occupation matrix ns (before diag.):
       0.774 -0.001  0.002  0.001  0.005
      -0.001  0.754  0.007 -0.012  0.001
       0.002  0.007  0.795 -0.015  0.019
       0.001 -0.012 -0.015  0.775  0.005
       0.005  0.001  0.019  0.005  0.778
     SPIN  2
     eigenvalues:
       0.747  0.757  0.770  0.785  0.812
     eigenvectors (columns):
       0.063  0.159  0.916 -0.346  0.105
       0.858 -0.407  0.090  0.255  0.157
       0.107  0.525 -0.180  0.034  0.825
       0.458  0.341 -0.315 -0.689 -0.317
      -0.197 -0.646 -0.144 -0.582  0.429
     occupation matrix ns (before diag.):
       0.772 -0.001  0.002  0.001  0.006
      -0.001  0.753  0.006 -0.012  0.001
       0.002  0.006  0.795 -0.015  0.019
       0.001 -0.012 -0.015  0.775  0.005
       0.006  0.001  0.019  0.005  0.776
     ------------------------ ATOM    7 ------------------------
     Tr[ns(  7)] (up, down, total) =   3.97459  3.96282  7.93741
     Atomic magnetic moment for atom   7 =   0.01177
     SPIN  1
     eigenvalues:
       0.774  0.780  0.791  0.798  0.833
     eigenvectors (columns):
      -0.097 -0.228  0.061 -0.825 -0.504
       0.319  0.679  0.617 -0.225  0.074
      -0.164 -0.102 -0.080 -0.479  0.852
      -0.116  0.662 -0.716 -0.161 -0.101
       0.921 -0.194 -0.312 -0.114  0.060
     occupation matrix ns (before diag.):
       0.806  0.002 -0.016  0.005  0.000
       0.002  0.784  0.005 -0.004 -0.003
      -0.016  0.005  0.823 -0.003  0.005
       0.005 -0.004 -0.003  0.786  0.003
       0.000 -0.003  0.005  0.003  0.776
     SPIN  2
     eigenvalues:
       0.773  0.778  0.785  0.791  0.836
     eigenvectors (columns):
      -0.109 -0.203 -0.044 -0.829 -0.507
       0.317  0.364  0.841 -0.229  0.086
      -0.171 -0.041 -0.135 -0.479  0.849
      -0.001  0.894 -0.414 -0.136 -0.100
       0.926 -0.156 -0.319 -0.108  0.068
     occupation matrix ns (before diag.):
       0.802 -0.000 -0.020  0.005 -0.000
      -0.000  0.784  0.005 -0.003 -0.003
      -0.020  0.005  0.823 -0.004  0.005
       0.005 -0.003 -0.004  0.780  0.001
      -0.000 -0.003  0.005  0.001  0.775
     ------------------------ ATOM    8 ------------------------
     Tr[ns(  8)] (up, down, total) =   3.97459  3.96282  7.93741
     Atomic magnetic moment for atom   8 =   0.01177
     SPIN  1
     eigenvalues:
       0.774  0.780  0.791  0.798  0.833
     eigenvectors (columns):
      -0.097 -0.228  0.061 -0.825 -0.504
       0.319  0.679  0.617 -0.225  0.074
      -0.164 -0.102 -0.080 -0.479  0.852
      -0.116  0.662 -0.716 -0.161 -0.101
       0.921 -0.194 -0.312 -0.114  0.060
     occupation matrix ns (before diag.):
       0.806  0.002 -0.016  0.005  0.000
       0.002  0.784  0.005 -0.004 -0.003
      -0.016  0.005  0.823 -0.003  0.005
       0.005 -0.004 -0.003  0.786  0.003
       0.000 -0.003  0.005  0.003  0.776
     SPIN  2
     eigenvalues:
       0.773  0.778  0.785  0.791  0.836
     eigenvectors (columns):
      -0.109 -0.203 -0.044 -0.829 -0.507
       0.317  0.364  0.841 -0.229  0.086
      -0.171 -0.041 -0.135 -0.479  0.849
      -0.001  0.894 -0.414 -0.136 -0.100
       0.926 -0.156 -0.319 -0.108  0.068
     occupation matrix ns (before diag.):
       0.802 -0.000 -0.020  0.005 -0.000
      -0.000  0.784  0.005 -0.003 -0.003
      -0.020  0.005  0.823 -0.004  0.005
       0.005 -0.003 -0.004  0.780  0.001
      -0.000 -0.003  0.005  0.001  0.775
     ------------------------ ATOM    9 ------------------------
     Tr[ns(  9)] (up, down, total) =   4.00428  3.99348  7.99776
     Atomic magnetic moment for atom   9 =   0.01080
     SPIN  1
     eigenvalues:
       0.792  0.795  0.801  0.807  0.809
     eigenvectors (columns):
       0.232  0.037  0.265  0.232 -0.906
      -0.831 -0.161 -0.303 -0.235 -0.369
      -0.231 -0.711  0.493  0.414  0.162
       0.111 -0.152 -0.721  0.667 -0.018
      -0.435  0.666  0.274  0.524  0.130
     occupation matrix ns (before diag.):
       0.808  0.004  0.000  0.001  0.001
       0.004  0.796 -0.004 -0.000 -0.004
       0.000 -0.004  0.799  0.001  0.004
       0.001 -0.000  0.001  0.804  0.003
       0.001 -0.004  0.004  0.003  0.798
     SPIN  2
     eigenvalues:
       0.792  0.795  0.797  0.803  0.808
     eigenvectors (columns):
       0.220 -0.129  0.295 -0.863 -0.323
      -0.808  0.294 -0.008 -0.063 -0.507
      -0.198  0.566  0.337 -0.272  0.673
       0.230  0.479 -0.801 -0.270 -0.044
      -0.454 -0.589 -0.397 -0.324  0.429
     occupation matrix ns (before diag.):
       0.802  0.003 -0.000  0.002  0.001
       0.003  0.796 -0.005  0.001 -0.004
      -0.000 -0.005  0.801 -0.000  0.004
       0.002  0.001 -0.000  0.796  0.001
       0.001 -0.004  0.004  0.001  0.798
     ------------------------ ATOM   10 ------------------------
     Tr[ns( 10)] (up, down, total) =   4.00428  3.99348  7.99776
     Atomic magnetic moment for atom  10 =   0.01080
     SPIN  1
     eigenvalues:
       0.792  0.795  0.801  0.807  0.809
     eigenvectors (columns):
       0.232  0.037  0.265  0.232 -0.906
      -0.831 -0.161 -0.303 -0.235 -0.369
      -0.231 -0.711  0.493  0.414  0.162
       0.111 -0.152 -0.721  0.667 -0.018
      -0.435  0.666  0.274  0.524  0.130
     occupation matrix ns (before diag.):
       0.808  0.004  0.000  0.001  0.001
       0.004  0.796 -0.004 -0.000 -0.004
       0.000 -0.004  0.799  0.001  0.004
       0.001 -0.000  0.001  0.804  0.003
       0.001 -0.004  0.004  0.003  0.798
     SPIN  2
     eigenvalues:
       0.792  0.795  0.797  0.803  0.808
     eigenvectors (columns):
       0.220 -0.129  0.295 -0.863 -0.323
      -0.808  0.294 -0.008 -0.063 -0.507
      -0.198  0.566  0.337 -0.272  0.673
       0.230  0.479 -0.801 -0.270 -0.044
      -0.454 -0.589 -0.397 -0.324  0.429
     occupation matrix ns (before diag.):
       0.802  0.003 -0.000  0.002  0.001
       0.003  0.796 -0.005  0.001 -0.004
      -0.000 -0.005  0.801 -0.000  0.004
       0.002  0.001 -0.000  0.796  0.001
       0.001 -0.004  0.004  0.001  0.798

     Number of occupied Hubbard levels =   79.7130

     negative rho (up, down):  2.489E+01 2.039E+01

     HUBBARD ENERGY =    3.2039  (Ry)

     total cpu time spent up to now is      211.5 secs

     total energy              =   -2253.31355674 Ry
     estimated scf accuracy    <    3122.28120585 Ry

     total magnetization       =    -1.89 Bohr mag/cell
     absolute magnetization    =     2.78 Bohr mag/cell
[tb_dev] Currently allocated     0.00E+00 Mbytes, locked:    0 /   0
[tb_pin] Currently allocated     0.00E+00 Mbytes, locked:    0 /   0

     iteration #  2     ecut=    50.00 Ry     beta= 0.70
     Davidson diagonalization with overlap

---- Real-time Memory Report at c_bands before calling an iterative solver
         14157 MiB given to the printing process from OS
             0 MiB allocation reported by mallinfo(arena+hblkhd)
        413261 MiB available memory on the node where the printing process lives
     GPU memory used/free/total (MiB): 3506 / 61438 / 64944
------------------
     ethr =  1.00E-02,  avg # of iterations = 11.0

     =================== HUBBARD OCCUPATIONS ===================
     ------------------------ ATOM    1 ------------------------
     Tr[ns(  1)] (up, down, total) =   0.46264  0.46909  0.93173
     Atomic magnetic moment for atom   1 =  -0.00645
     SPIN  1
     eigenvalues:
       0.042  0.050  0.097  0.112  0.162
     eigenvectors (columns):
       0.318  0.209 -0.476 -0.758 -0.235
      -0.296  0.438 -0.167  0.338 -0.760
      -0.353  0.739 -0.102 -0.054  0.562
       0.226 -0.138 -0.800  0.489  0.226
       0.797  0.445  0.309  0.265 -0.004
     occupation matrix ns (before diag.):
       0.102  0.009 -0.009 -0.011 -0.021
       0.009  0.122 -0.049 -0.002  0.005
      -0.009 -0.049  0.085  0.017 -0.000
      -0.011 -0.002  0.017  0.100 -0.005
      -0.021  0.005 -0.000 -0.005  0.054
     SPIN  2
     eigenvalues:
       0.043  0.051  0.098  0.113  0.164
     eigenvectors (columns):
       0.305  0.269 -0.460  0.738  0.280
      -0.321  0.411 -0.161 -0.398  0.737
      -0.398  0.717 -0.093  0.059 -0.562
       0.246 -0.124 -0.804 -0.464 -0.249
       0.765  0.478  0.327 -0.282 -0.014
     occupation matrix ns (before diag.):
       0.103  0.010 -0.012 -0.012 -0.022
       0.010  0.123 -0.049 -0.003  0.005
      -0.012 -0.049  0.086  0.018  0.001
      -0.012 -0.003  0.018  0.101 -0.005
      -0.022  0.005  0.001 -0.005  0.056
     ------------------------ ATOM    2 ------------------------
     Tr[ns(  2)] (up, down, total) =   0.46264  0.46909  0.93173
     Atomic magnetic moment for atom   2 =  -0.00645
     SPIN  1
     eigenvalues:
       0.042  0.050  0.097  0.112  0.162
     eigenvectors (columns):
       0.318  0.209 -0.476 -0.758 -0.235
      -0.296  0.438 -0.167  0.338 -0.760
      -0.353  0.739 -0.102 -0.054  0.562
       0.226 -0.138 -0.800  0.489  0.226
       0.797  0.445  0.309  0.265 -0.004
     occupation matrix ns (before diag.):
       0.102  0.009 -0.009 -0.011 -0.021
       0.009  0.122 -0.049 -0.002  0.005
      -0.009 -0.049  0.085  0.017 -0.000
      -0.011 -0.002  0.017  0.100 -0.005
      -0.021  0.005 -0.000 -0.005  0.054
     SPIN  2
     eigenvalues:
       0.043  0.051  0.098  0.113  0.164
     eigenvectors (columns):
       0.305  0.269 -0.460  0.738  0.280
      -0.321  0.411 -0.161 -0.398  0.737
      -0.398  0.717 -0.093  0.059 -0.562
       0.246 -0.124 -0.804 -0.464 -0.249
       0.765  0.478  0.327 -0.282 -0.014
     occupation matrix ns (before diag.):
       0.103  0.010 -0.012 -0.012 -0.022
       0.010  0.123 -0.049 -0.003  0.005
      -0.012 -0.049  0.086  0.018  0.001
      -0.012 -0.003  0.018  0.101 -0.005
      -0.022  0.005  0.001 -0.005  0.056
     ------------------------ ATOM    3 ------------------------
     Tr[ns(  3)] (up, down, total) =   0.04393  0.04677  0.09070
     Atomic magnetic moment for atom   3 =  -0.00284
     SPIN  1
     eigenvalues:
       0.002  0.003  0.010  0.012  0.018
     eigenvectors (columns):
      -0.843  0.110 -0.316  0.373 -0.197
       0.388 -0.313 -0.753  0.113 -0.414
      -0.176  0.199 -0.529 -0.656  0.468
       0.245  0.212 -0.225  0.646  0.654
       0.220  0.898 -0.054 -0.013 -0.378
     occupation matrix ns (before diag.):
       0.004  0.004 -0.003  0.001  0.001
       0.004  0.009 -0.001 -0.003  0.003
      -0.003 -0.001  0.012  0.002 -0.002
       0.001 -0.003  0.002  0.013 -0.004
       0.001  0.003 -0.002 -0.004  0.005
     SPIN  2
     eigenvalues:
       0.002  0.003  0.010  0.014  0.018
     eigenvectors (columns):
      -0.852  0.084 -0.360 -0.313  0.197
       0.401 -0.305 -0.762 -0.043  0.405
      -0.157  0.202 -0.456  0.707 -0.476
       0.220  0.209 -0.280 -0.633 -0.655
       0.199  0.903 -0.057  0.003  0.376
     occupation matrix ns (before diag.):
       0.005  0.004 -0.003  0.001  0.001
       0.004  0.009 -0.001 -0.002  0.003
      -0.003 -0.001  0.013  0.001 -0.003
       0.001 -0.002  0.001  0.015 -0.004
       0.001  0.003 -0.003 -0.004  0.005
     ------------------------ ATOM    4 ------------------------
     Tr[ns(  4)] (up, down, total) =   0.04393  0.04677  0.09070
     Atomic magnetic moment for atom   4 =  -0.00284
     SPIN  1
     eigenvalues:
       0.002  0.003  0.010  0.012  0.018
     eigenvectors (columns):
      -0.843  0.110 -0.316  0.373 -0.197
       0.388 -0.313 -0.753  0.113 -0.414
      -0.176  0.199 -0.529 -0.656  0.468
       0.245  0.212 -0.225  0.646  0.654
       0.220  0.898 -0.054 -0.013 -0.378
     occupation matrix ns (before diag.):
       0.004  0.004 -0.003  0.001  0.001
       0.004  0.009 -0.001 -0.003  0.003
      -0.003 -0.001  0.012  0.002 -0.002
       0.001 -0.003  0.002  0.013 -0.004
       0.001  0.003 -0.002 -0.004  0.005
     SPIN  2
     eigenvalues:
       0.002  0.003  0.010  0.014  0.018
     eigenvectors (columns):
      -0.852  0.084 -0.360 -0.313  0.197
       0.401 -0.305 -0.762 -0.043  0.405
      -0.157  0.202 -0.456  0.707 -0.476
       0.220  0.209 -0.280 -0.633 -0.655
       0.199  0.903 -0.057  0.003  0.376
     occupation matrix ns (before diag.):
       0.005  0.004 -0.003  0.001  0.001
       0.004  0.009 -0.001 -0.002  0.003
      -0.003 -0.001  0.013  0.001 -0.003
       0.001 -0.002  0.001  0.015 -0.004
       0.001  0.003 -0.003 -0.004  0.005
     ------------------------ ATOM    5 ------------------------
     Tr[ns(  5)] (up, down, total) =   0.33000  0.32842  0.65842
     Atomic magnetic moment for atom   5 =   0.00159
     SPIN  1
     eigenvalues:
       0.028  0.041  0.055  0.096  0.110
     eigenvectors (columns):
      -0.628 -0.319  0.228 -0.230 -0.631
      -0.078  0.375  0.892 -0.058  0.232
      -0.522 -0.217 -0.164 -0.386  0.710
       0.263  0.375 -0.141 -0.857 -0.190
      -0.508  0.755 -0.324  0.246 -0.083
     occupation matrix ns (before diag.):
       0.067 -0.007 -0.031  0.021 -0.005
      -0.007  0.056  0.010 -0.002 -0.007
      -0.031  0.010  0.081  0.011 -0.012
       0.021 -0.002  0.011  0.083 -0.008
      -0.005 -0.007 -0.012 -0.008  0.043
     SPIN  2
     eigenvalues:
       0.029  0.040  0.056  0.095  0.109
     eigenvectors (columns):
      -0.605 -0.355  0.254 -0.267 -0.610
      -0.057  0.334  0.904 -0.042  0.256
      -0.516 -0.237 -0.167 -0.342  0.730
       0.241  0.390 -0.130 -0.868 -0.140
      -0.554  0.744 -0.270  0.237 -0.100
     occupation matrix ns (before diag.):
       0.066 -0.007 -0.030  0.020 -0.004
      -0.007  0.057  0.011 -0.002 -0.007
      -0.030  0.011  0.081  0.011 -0.012
       0.020 -0.002  0.011  0.083 -0.009
      -0.004 -0.007 -0.012 -0.009  0.041
     ------------------------ ATOM    6 ------------------------
     Tr[ns(  6)] (up, down, total) =   0.33000  0.32842  0.65842
     Atomic magnetic moment for atom   6 =   0.00159
     SPIN  1
     eigenvalues:
       0.028  0.041  0.055  0.096  0.110
     eigenvectors (columns):
      -0.628 -0.319  0.228 -0.230 -0.631
      -0.078  0.375  0.892 -0.058  0.232
      -0.522 -0.217 -0.164 -0.386  0.710
       0.263  0.375 -0.141 -0.857 -0.190
      -0.508  0.755 -0.324  0.246 -0.083
     occupation matrix ns (before diag.):
       0.067 -0.007 -0.031  0.021 -0.005
      -0.007  0.056  0.010 -0.002 -0.007
      -0.031  0.010  0.081  0.011 -0.012
       0.021 -0.002  0.011  0.083 -0.008
      -0.005 -0.007 -0.012 -0.008  0.043
     SPIN  2
     eigenvalues:
       0.029  0.040  0.056  0.095  0.109
     eigenvectors (columns):
      -0.605 -0.355  0.254 -0.267 -0.610
      -0.057  0.334  0.904 -0.042  0.256
      -0.516 -0.237 -0.167 -0.342  0.730
       0.241  0.390 -0.130 -0.868 -0.140
      -0.554  0.744 -0.270  0.237 -0.100
     occupation matrix ns (before diag.):
       0.066 -0.007 -0.030  0.020 -0.004
      -0.007  0.057  0.011 -0.002 -0.007
      -0.030  0.011  0.081  0.011 -0.012
       0.020 -0.002  0.011  0.083 -0.009
      -0.004 -0.007 -0.012 -0.009  0.041
     ------------------------ ATOM    7 ------------------------
     Tr[ns(  7)] (up, down, total) =   0.04273  0.03970  0.08244
     Atomic magnetic moment for atom   7 =   0.00303
     SPIN  1
     eigenvalues:
       0.001  0.001  0.005  0.013  0.023
     eigenvectors (columns):
       0.412  0.755 -0.155 -0.074 -0.480
      -0.860  0.424 -0.246 -0.136  0.029
       0.182 -0.166 -0.431 -0.852  0.165
      -0.148 -0.464 -0.451  0.145 -0.733
       0.188  0.083 -0.725  0.479  0.451
     occupation matrix ns (before diag.):
       0.006  0.000 -0.001  0.008 -0.005
       0.000  0.001  0.002 -0.000  0.000
      -0.001  0.002  0.011 -0.003 -0.002
       0.008 -0.000 -0.003  0.014 -0.005
      -0.005  0.000 -0.002 -0.005  0.010
     SPIN  2
     eigenvalues:
       0.001  0.001  0.004  0.012  0.022
     eigenvectors (columns):
       0.413  0.763 -0.138 -0.059 -0.475
      -0.859  0.426 -0.243 -0.147  0.026
       0.195 -0.140 -0.389 -0.874  0.166
      -0.131 -0.457 -0.489  0.125 -0.721
       0.193  0.095 -0.729  0.442  0.476
     occupation matrix ns (before diag.):
       0.006  0.000 -0.001  0.007 -0.005
       0.000  0.001  0.002 -0.000  0.000
      -0.001  0.002  0.010 -0.003 -0.002
       0.007 -0.000 -0.003  0.013 -0.005
      -0.005  0.000 -0.002 -0.005  0.010
     ------------------------ ATOM    8 ------------------------
     Tr[ns(  8)] (up, down, total) =   0.04273  0.03970  0.08244
     Atomic magnetic moment for atom   8 =   0.00303
     SPIN  1
     eigenvalues:
       0.001  0.001  0.005  0.013  0.023
     eigenvectors (columns):
       0.412  0.755 -0.155 -0.074 -0.480
      -0.860  0.424 -0.246 -0.136  0.029
       0.182 -0.166 -0.431 -0.852  0.165
      -0.148 -0.464 -0.451  0.145 -0.733
       0.188  0.083 -0.725  0.479  0.451
     occupation matrix ns (before diag.):
       0.006  0.000 -0.001  0.008 -0.005
       0.000  0.001  0.002 -0.000  0.000
      -0.001  0.002  0.011 -0.003 -0.002
       0.008 -0.000 -0.003  0.014 -0.005
      -0.005  0.000 -0.002 -0.005  0.010
     SPIN  2
     eigenvalues:
       0.001  0.001  0.004  0.012  0.022
     eigenvectors (columns):
       0.413  0.763 -0.138 -0.059 -0.475
      -0.859  0.426 -0.243 -0.147  0.026
       0.195 -0.140 -0.389 -0.874  0.166
      -0.131 -0.457 -0.489  0.125 -0.721
       0.193  0.095 -0.729  0.442  0.476
     occupation matrix ns (before diag.):
       0.006  0.000 -0.001  0.007 -0.005
       0.000  0.001  0.002 -0.000  0.000
      -0.001  0.002  0.010 -0.003 -0.002
       0.007 -0.000 -0.003  0.013 -0.005
      -0.005  0.000 -0.002 -0.005  0.010
     ------------------------ ATOM    9 ------------------------
     Tr[ns(  9)] (up, down, total) =   1.30772  1.20515  2.51287
     Atomic magnetic moment for atom   9 =   0.10257
     SPIN  1
     eigenvalues:
       0.187  0.239  0.260  0.304  0.318
     eigenvectors (columns):
      -0.070 -0.184 -0.788 -0.081  0.577
       0.001 -0.437  0.023 -0.869 -0.231
      -0.946 -0.174  0.226  0.054  0.146
      -0.181 -0.224 -0.513  0.299 -0.751
      -0.261  0.834 -0.253 -0.382 -0.165
     occupation matrix ns (before diag.):
       0.278 -0.006 -0.001 -0.028 -0.002
      -0.006  0.292 -0.006 -0.003  0.024
      -0.001 -0.006  0.196 -0.019 -0.017
      -0.028 -0.003 -0.019  0.293  0.003
      -0.002  0.024 -0.017  0.003  0.248
     SPIN  2
     eigenvalues:
       0.174  0.223  0.240  0.274  0.293
     eigenvectors (columns):
      -0.268 -0.414  0.742  0.409 -0.198
      -0.014 -0.464 -0.102  0.129  0.870
      -0.908 -0.057 -0.403  0.032 -0.097
      -0.233 -0.022  0.422 -0.861  0.162
      -0.223  0.781  0.315  0.272  0.410
     occupation matrix ns (before diag.):
       0.240 -0.011 -0.015 -0.018  0.001
      -0.011  0.277 -0.006  0.003  0.026
      -0.015 -0.006  0.186 -0.016 -0.014
      -0.018  0.003 -0.016  0.263 -0.008
       0.001  0.026 -0.014 -0.008  0.238
     ------------------------ ATOM   10 ------------------------
     Tr[ns( 10)] (up, down, total) =   1.30772  1.20515  2.51287
     Atomic magnetic moment for atom  10 =   0.10257
     SPIN  1
     eigenvalues:
       0.187  0.239  0.260  0.304  0.318
     eigenvectors (columns):
      -0.070 -0.184 -0.788 -0.081  0.577
       0.001 -0.437  0.023 -0.869 -0.231
      -0.946 -0.174  0.226  0.054  0.146
      -0.181 -0.224 -0.513  0.299 -0.751
      -0.261  0.834 -0.253 -0.382 -0.165
     occupation matrix ns (before diag.):
       0.278 -0.006 -0.001 -0.028 -0.002
      -0.006  0.292 -0.006 -0.003  0.024
      -0.001 -0.006  0.196 -0.019 -0.017
      -0.028 -0.003 -0.019  0.293  0.003
      -0.002  0.024 -0.017  0.003  0.248
     SPIN  2
     eigenvalues:
       0.174  0.223  0.240  0.274  0.293
     eigenvectors (columns):
      -0.268 -0.414  0.742  0.409 -0.198
      -0.014 -0.464 -0.102  0.129  0.870
      -0.908 -0.057 -0.403  0.032 -0.097
      -0.233 -0.022  0.422 -0.861  0.162
      -0.223  0.781  0.315  0.272  0.410
     occupation matrix ns (before diag.):
       0.240 -0.011 -0.015 -0.018  0.001
      -0.011  0.277 -0.006  0.003  0.026
      -0.015 -0.006  0.186 -0.016 -0.014
      -0.018  0.003 -0.016  0.263 -0.008
       0.001  0.026 -0.014 -0.008  0.238

     Number of occupied Hubbard levels =    8.5523

     negative rho (up, down):  1.018E+01 7.797E+00

     HUBBARD ENERGY =    4.1611  (Ry)

     total cpu time spent up to now is      292.7 secs

     total energy              =   -2244.58891482 Ry
     estimated scf accuracy    <    2886.96464093 Ry

     total magnetization       =    -0.04 Bohr mag/cell
     absolute magnetization    =     1.96 Bohr mag/cell
[tb_dev] Currently allocated     0.00E+00 Mbytes, locked:    0 /   0
[tb_pin] Currently allocated     0.00E+00 Mbytes, locked:    0 /   0

     iteration #  3     ecut=    50.00 Ry     beta= 0.70
     Davidson diagonalization with overlap

---- Real-time Memory Report at c_bands before calling an iterative solver
         14182 MiB given to the printing process from OS
             0 MiB allocation reported by mallinfo(arena+hblkhd)
        413949 MiB available memory on the node where the printing process lives
     GPU memory used/free/total (MiB): 3506 / 61438 / 64944
------------------
     ethr =  1.00E-02,  avg # of iterations = 10.3

     =================== HUBBARD OCCUPATIONS ===================
     ------------------------ ATOM    1 ------------------------
     Tr[ns(  1)] (up, down, total) =   0.30184  0.30487  0.60672
     Atomic magnetic moment for atom   1 =  -0.00303
     SPIN  1
     eigenvalues:
       0.027  0.047  0.058  0.078  0.092
     eigenvectors (columns):
       0.557  0.034 -0.084 -0.162  0.810
      -0.194 -0.966 -0.008 -0.012  0.171
       0.201 -0.078 -0.919 -0.192 -0.269
      -0.731  0.235 -0.364  0.188  0.493
      -0.278  0.069  0.128 -0.949  0.012
     occupation matrix ns (before diag.):
       0.071  0.008 -0.010  0.025  0.008
       0.008  0.048 -0.001  0.001 -0.001
      -0.010 -0.001  0.060 -0.000  0.005
       0.025  0.001 -0.000  0.050 -0.010
       0.008 -0.001  0.005 -0.010  0.073
     SPIN  2
     eigenvalues:
       0.027  0.048  0.059  0.079  0.091
     eigenvectors (columns):
      -0.559 -0.033  0.078  0.169 -0.807
       0.190  0.965  0.072  0.003 -0.164
      -0.208  0.016  0.927  0.162  0.267
       0.731 -0.254  0.344 -0.179 -0.501
       0.271 -0.048 -0.107  0.955  0.004
     occupation matrix ns (before diag.):
       0.071  0.008 -0.010  0.025  0.008
       0.008  0.049 -0.000  0.001 -0.001
      -0.010 -0.000  0.060 -0.000  0.005
       0.025  0.001 -0.000  0.050 -0.010
       0.008 -0.001  0.005 -0.010  0.075
     ------------------------ ATOM    2 ------------------------
     Tr[ns(  2)] (up, down, total) =   0.30184  0.30487  0.60672
     Atomic magnetic moment for atom   2 =  -0.00303
     SPIN  1
     eigenvalues:
       0.027  0.047  0.058  0.078  0.092
     eigenvectors (columns):
       0.557  0.034 -0.084 -0.162  0.810
      -0.194 -0.966 -0.008 -0.012  0.171
       0.201 -0.078 -0.919 -0.192 -0.269
      -0.731  0.235 -0.364  0.188  0.493
      -0.278  0.069  0.128 -0.949  0.012
     occupation matrix ns (before diag.):
       0.071  0.008 -0.010  0.025  0.008
       0.008  0.048 -0.001  0.001 -0.001
      -0.010 -0.001  0.060 -0.000  0.005
       0.025  0.001 -0.000  0.050 -0.010
       0.008 -0.001  0.005 -0.010  0.073
     SPIN  2
     eigenvalues:
       0.027  0.048  0.059  0.079  0.091
     eigenvectors (columns):
      -0.559 -0.033  0.078  0.169 -0.807
       0.190  0.965  0.072  0.003 -0.164
      -0.208  0.016  0.927  0.162  0.267
       0.731 -0.254  0.344 -0.179 -0.501
       0.271 -0.048 -0.107  0.955  0.004
     occupation matrix ns (before diag.):
       0.071  0.008 -0.010  0.025  0.008
       0.008  0.049 -0.000  0.001 -0.001
      -0.010 -0.000  0.060 -0.000  0.005
       0.025  0.001 -0.000  0.050 -0.010
       0.008 -0.001  0.005 -0.010  0.075
     ------------------------ ATOM    3 ------------------------
     Tr[ns(  3)] (up, down, total) =   4.91099  4.91008  9.82107
     Atomic magnetic moment for atom   3 =   0.00091
     SPIN  1
     eigenvalues:
       0.974  0.979  0.982  0.988  0.988
     eigenvectors (columns):
       0.524  0.654 -0.160 -0.125  0.507
      -0.186  0.048 -0.823 -0.475 -0.246
       0.746 -0.546 -0.295  0.218 -0.106
       0.303  0.437  0.223 -0.036 -0.816
      -0.207  0.284 -0.402  0.843 -0.071
     occupation matrix ns (before diag.):
       0.980  0.000 -0.002 -0.005 -0.001
       0.000  0.983  0.001  0.002 -0.003
      -0.002  0.001  0.977 -0.000  0.003
      -0.005  0.002 -0.000  0.985  0.000
      -0.001 -0.003  0.003  0.000  0.985
     SPIN  2
     eigenvalues:
       0.974  0.979  0.981  0.987  0.988
     eigenvectors (columns):
       0.553 -0.648  0.099 -0.129  0.498
      -0.193 -0.115  0.813 -0.488 -0.225
       0.716  0.552  0.356  0.221 -0.090
       0.321 -0.394 -0.227 -0.029 -0.830
      -0.206 -0.328  0.389  0.834 -0.059
     occupation matrix ns (before diag.):
       0.980  0.000 -0.002 -0.005 -0.001
       0.000  0.983  0.001  0.002 -0.003
      -0.002  0.001  0.977 -0.001  0.003
      -0.005  0.002 -0.001  0.985  0.000
      -0.001 -0.003  0.003  0.000  0.985
     ------------------------ ATOM    4 ------------------------
     Tr[ns(  4)] (up, down, total) =   4.91099  4.91008  9.82107
     Atomic magnetic moment for atom   4 =   0.00091
     SPIN  1
     eigenvalues:
       0.974  0.979  0.982  0.988  0.988
     eigenvectors (columns):
       0.524  0.654 -0.160 -0.125  0.507
      -0.186  0.048 -0.823 -0.475 -0.246
       0.746 -0.546 -0.295  0.218 -0.106
       0.303  0.437  0.223 -0.036 -0.816
      -0.207  0.284 -0.402  0.843 -0.071
     occupation matrix ns (before diag.):
       0.980  0.000 -0.002 -0.005 -0.001
       0.000  0.983  0.001  0.002 -0.003
      -0.002  0.001  0.977 -0.000  0.003
      -0.005  0.002 -0.000  0.985  0.000
      -0.001 -0.003  0.003  0.000  0.985
     SPIN  2
     eigenvalues:
       0.974  0.979  0.981  0.987  0.988
     eigenvectors (columns):
       0.553 -0.648  0.099 -0.129  0.498
      -0.193 -0.115  0.813 -0.488 -0.225
       0.716  0.552  0.356  0.221 -0.090
       0.321 -0.394 -0.227 -0.029 -0.830
      -0.206 -0.328  0.389  0.834 -0.059
[...]
     atom   24 type  2   force =    -0.56406233   -0.44718165    0.18216952
     atom   25 type  2   force =     0.39633795    0.32136695    0.29650264
     atom   26 type  2   force =    -0.73936733    0.08799359   -0.25665643
     atom   27 type  2   force =     0.42053201   -0.37372710    0.32892593
     atom   28 type  2   force =     0.27653620   -0.06676574   -0.23881425
     atom   29 type  2   force =    -0.42053201    0.37372710   -0.32892593
     atom   30 type  2   force =     0.08970749    0.18917050   -0.25495878
     The ionic contribution  to forces
     atom    1 type  3   force =     1.41725413   -3.06985696   20.07645264
     atom    2 type  3   force =    -1.41725413    3.06985696  -20.07645264
     atom    3 type  3   force =     2.53058609   -1.96438842    0.14719022
     atom    4 type  3   force =    -2.53058609    1.96438842   -0.14719022
     atom    5 type  3   force =   -12.44679645   -3.72216386    1.97445214
     atom    6 type  3   force =    12.44679645    3.72216386   -1.97445214
     atom    7 type  1   force =    -7.46795031  -12.89725959  -23.10708710
     atom    8 type  1   force =     7.46795031   12.89725959   23.10708710
     atom    9 type  1   force =    24.75125736    3.36921287   -5.30306417
     atom   10 type  1   force =   -24.75125736   -3.36921287    5.30306417
     atom   11 type  2   force =    -5.23340146   -7.78536347    3.53224378
     atom   12 type  2   force =   -12.76935175   -4.42955787  -11.44339656
     atom   13 type  2   force =    -1.64141963   -5.65830563    0.07367861
     atom   14 type  2   force =     8.85257687   -3.17676837   12.87029729
     atom   15 type  2   force =   -16.42312112   -4.76485190   12.76923097
     atom   16 type  2   force =    -8.20394334    1.77736734   -3.45939054
     atom   17 type  2   force =     3.87608322    1.43440824   -5.97445065
     atom   18 type  2   force =    -3.87608322   -1.43440824    5.97445065
     atom   19 type  2   force =    -1.61283621  -12.71687973   -7.12388465
     atom   20 type  2   force =     1.61283621   12.71687973    7.12388465
     atom   21 type  2   force =    16.42312112    4.76485190  -12.76923097
     atom   22 type  2   force =    -4.35408519   -4.90109651   -0.54221811
     atom   23 type  2   force =     1.64141963    5.65830563   -0.07367861
     atom   24 type  2   force =     5.23340146    7.78536347   -3.53224378
     atom   25 type  2   force =    -8.85257687    3.17676837  -12.87029729
     atom   26 type  2   force =    12.76935175    4.42955787   11.44339656
     atom   27 type  2   force =    -1.12450283    7.88516994    1.60315153
     atom   28 type  2   force =     8.20394334   -1.77736734    3.45939054
     atom   29 type  2   force =     1.12450283   -7.88516994   -1.60315153
     atom   30 type  2   force =     4.35408519    4.90109651    0.54221811
     The local contribution  to forces
     atom    1 type  3   force =    -1.47056613    3.17578709  -20.04222888
     atom    2 type  3   force =     1.47056613   -3.17578709   20.04222888
     atom    3 type  3   force =    -2.59112518    1.91964209   -0.16963273
     atom    4 type  3   force =     2.59112518   -1.91964209    0.16963273
     atom    5 type  3   force =    12.55184658    3.76400618   -1.94588636
     atom    6 type  3   force =   -12.55184658   -3.76400618    1.94588636
     atom    7 type  1   force =     7.28011593   12.82317753   23.00073133
     atom    8 type  1   force =    -7.28011593  -12.82317753  -23.00073133
     atom    9 type  1   force =   -24.76603312   -3.37077560    5.32969403
     atom   10 type  1   force =    24.76603312    3.37077560   -5.32969403
     atom   11 type  2   force =     4.66612345    7.33726785   -3.34861836
     atom   12 type  2   force =    12.02477474    4.52798066   11.18732821
     atom   13 type  2   force =     1.13642161    5.29256675   -0.06544017
     atom   14 type  2   force =    -8.45624411    3.50587606  -12.58165553
     atom   15 type  2   force =    15.55648648    4.36693583  -12.52724355
     atom   16 type  2   force =     8.48622756   -1.85344063    3.21899191
     atom   17 type  2   force =    -4.30115549   -1.48585243    5.81273435
     atom   18 type  2   force =     4.30115549    1.48585243   -5.81273435
     atom   19 type  2   force =     1.67824086   11.89105034    7.14312985
     atom   20 type  2   force =    -1.67824086  -11.89105034   -7.14312985
     atom   21 type  2   force =   -15.55648648   -4.36693583   12.52724355
     atom   22 type  2   force =     4.44434896    5.09976309    0.28273969
     atom   23 type  2   force =    -1.13642161   -5.29256675    0.06544017
     atom   24 type  2   force =    -4.66612345   -7.33726785    3.34861836
     atom   25 type  2   force =     8.45624411   -3.50587606   12.58165553
     atom   26 type  2   force =   -12.02477474   -4.52798066  -11.18732821
     atom   27 type  2   force =     0.69248180   -7.51040048   -1.93623959
     atom   28 type  2   force =    -8.48622756    1.85344063   -3.21899191
     atom   29 type  2   force =    -0.69248180    7.51040048    1.93623959
     atom   30 type  2   force =    -4.44434896   -5.09976309   -0.28273969
     The core correction contribution to forces
     atom    1 type  3   force =    -0.00533803    0.01134188    0.00233720
     atom    2 type  3   force =     0.00533803   -0.01134188   -0.00233720
     atom    3 type  3   force =    -0.01780534   -0.00735246    0.00540565
     atom    4 type  3   force =     0.01780534    0.00735246   -0.00540565
     atom    5 type  3   force =     0.01307386    0.00584001    0.00451406
     atom    6 type  3   force =    -0.01307386   -0.00584001   -0.00451406
     atom    7 type  1   force =    -0.00074811    0.00008518    0.00002338
     atom    8 type  1   force =     0.00074811   -0.00008518   -0.00002338
     atom    9 type  1   force =    -0.00124805   -0.00031721    0.00047288
     atom   10 type  1   force =     0.00124805    0.00031721   -0.00047288
     atom   11 type  2   force =    -0.00414966   -0.00321751    0.00114050
     atom   12 type  2   force =    -0.00429020   -0.00200041   -0.00208385
     atom   13 type  2   force =    -0.00052927   -0.00164064    0.00034534
     atom   14 type  2   force =     0.00308255    0.00148069    0.00349105
     atom   15 type  2   force =    -0.00604675   -0.00269891    0.00428344
     atom   16 type  2   force =     0.00151660    0.00124843   -0.00159069
     atom   17 type  2   force =    -0.00272222   -0.00027328   -0.00078673
     atom   18 type  2   force =     0.00272222    0.00027328    0.00078673
     atom   19 type  2   force =     0.00100389   -0.00457695   -0.00199607
     atom   20 type  2   force =    -0.00100389    0.00457695    0.00199607
     atom   21 type  2   force =     0.00604675    0.00269891   -0.00428344
     atom   22 type  2   force =     0.00091744   -0.00020823   -0.00121527
     atom   23 type  2   force =     0.00052927    0.00164064   -0.00034534
     atom   24 type  2   force =     0.00414966    0.00321751   -0.00114050
     atom   25 type  2   force =    -0.00308255   -0.00148069   -0.00349105
     atom   26 type  2   force =     0.00429020    0.00200041    0.00208385
     atom   27 type  2   force =    -0.00013945    0.00275763   -0.00168862
     atom   28 type  2   force =    -0.00151660   -0.00124843    0.00159069
     atom   29 type  2   force =     0.00013945   -0.00275763    0.00168862
     atom   30 type  2   force =    -0.00091744    0.00020823    0.00121527
     The Hubbard contrib.    to forces
     atom    1 type  3   force =    -0.00238871    0.01078840   -0.00146943
     atom    2 type  3   force =     0.00238871   -0.01078840    0.00146943
     atom    3 type  3   force =    -0.02332979   -0.00669665    0.00908823
     atom    4 type  3   force =     0.02332979    0.00669665   -0.00908823
     atom    5 type  3   force =     0.01464805    0.01054197    0.00312865
     atom    6 type  3   force =    -0.01464805   -0.01054197   -0.00312865
     atom    7 type  1   force =     0.01108415    0.00423362    0.00526459
     atom    8 type  1   force =    -0.01108415   -0.00423362   -0.00526459
     atom    9 type  1   force =    -0.00137962   -0.00175048   -0.00218169
     atom   10 type  1   force =     0.00137962    0.00175048    0.00218169
     atom   11 type  2   force =     0.00738745    0.00411998   -0.00261335
     atom   12 type  2   force =     0.00950591   -0.00843274    0.00146050
     atom   13 type  2   force =     0.01269001    0.00594531    0.00028121
     atom   14 type  2   force =    -0.00302676   -0.00912654    0.00434630
     atom   15 type  2   force =     0.00957494    0.00343753    0.00793137
     atom   16 type  2   force =    -0.00731968    0.00799776    0.00310960
     atom   17 type  2   force =     0.00809023    0.00150758    0.00307369
     atom   18 type  2   force =    -0.00809023   -0.00150758   -0.00307369
     atom   19 type  2   force =    -0.00046040    0.01090838   -0.00741821
     atom   20 type  2   force =     0.00046040   -0.01090838    0.00741821
     atom   21 type  2   force =    -0.00957494   -0.00343753   -0.00793137
     atom   22 type  2   force =    -0.00147185   -0.00932508    0.00568609
     atom   23 type  2   force =    -0.01269001   -0.00594531   -0.00028121
     atom   24 type  2   force =    -0.00738745   -0.00411998    0.00261335
     atom   25 type  2   force =     0.00302676    0.00912654   -0.00434630
     atom   26 type  2   force =    -0.00950591    0.00843274   -0.00146050
     atom   27 type  2   force =     0.01166941   -0.00381941    0.00582095
     atom   28 type  2   force =     0.00731968   -0.00799776   -0.00310960
     atom   29 type  2   force =    -0.01166941    0.00381941   -0.00582095
     atom   30 type  2   force =     0.00147185    0.00932508   -0.00568609
     The SCF correction term to forces
     atom    1 type  3   force =     0.00000032    0.00004656   -0.00000243
     atom    2 type  3   force =    -0.00000032   -0.00004656    0.00000243
     atom    3 type  3   force =     0.00001909    0.00001274   -0.00000601
     atom    4 type  3   force =    -0.00001909   -0.00001274    0.00000601
     atom    5 type  3   force =    -0.00000099   -0.00000310   -0.00000464
     atom    6 type  3   force =     0.00000099    0.00000310    0.00000464
     atom    7 type  1   force =    -0.00002556    0.00004873   -0.00000761
     atom    8 type  1   force =     0.00002556   -0.00004873    0.00000761
     atom    9 type  1   force =    -0.00000063    0.00000129    0.00004013
     atom   10 type  1   force =     0.00000063   -0.00000129   -0.00004013
     atom   11 type  2   force =     0.00000705    0.00000438   -0.00001342
     atom   12 type  2   force =     0.00000473   -0.00000646   -0.00000039
     atom   13 type  2   force =     0.00000449    0.00000106    0.00000456
     atom   14 type  2   force =    -0.00000380    0.00000098    0.00002092
     atom   15 type  2   force =     0.00000350    0.00000645    0.00001741
     atom   16 type  2   force =    -0.00000608    0.00000643   -0.00000128
     atom   17 type  2   force =    -0.00000530    0.00000534   -0.00000127
     atom   18 type  2   force =     0.00000530   -0.00000534    0.00000127
     atom   19 type  2   force =    -0.00000860    0.00000114    0.00000670
     atom   20 type  2   force =     0.00000860   -0.00000114   -0.00000670
     atom   21 type  2   force =    -0.00000350   -0.00000645   -0.00001741
     atom   22 type  2   force =    -0.00000099   -0.00000397   -0.00001110
     atom   23 type  2   force =    -0.00000449   -0.00000106   -0.00000456
     atom   24 type  2   force =    -0.00000705   -0.00000438    0.00001342
     atom   25 type  2   force =     0.00000380   -0.00000098   -0.00002092
     atom   26 type  2   force =    -0.00000473    0.00000646    0.00000039
     atom   27 type  2   force =    -0.00001126   -0.00000816    0.00000155
     atom   28 type  2   force =     0.00000608   -0.00000643    0.00000128
     atom   29 type  2   force =     0.00001126    0.00000816   -0.00000155
     atom   30 type  2   force =     0.00000099    0.00000397    0.00001110

     Total force =     0.000410     Total SCF correction =     0.000136
     SCF correction compared to forces is large: reduce conv_thr to get better values


     Computing stress (Cartesian axis) and pressure


     negative rho (up, down):  3.050E-03 4.267E-03
     stres_hub    :    232.13s CPU    234.00s WALL (       2 calls)
     dprojdepsilo :    189.90s CPU    191.49s WALL (    4428 calls)
     dprojdeps1   :     85.80s CPU     86.14s WALL (    4428 calls)
     dprojdeps2   :     56.87s CPU     57.55s WALL (    4428 calls)
     dprojdeps3   :     47.19s CPU     47.78s WALL (    4428 calls)
          total   stress  (Ry/bohr**3)                   (kbar)     P=        0.36
   0.00000227  -0.00000048  -0.00000027            0.33       -0.07       -0.04
  -0.00000048   0.00000281  -0.00000036           -0.07        0.41       -0.05
  -0.00000027  -0.00000036   0.00000225           -0.04       -0.05        0.33

     kinetic stress (kbar)  27617.68    -23.99     96.58
                              -23.99  27472.58    -76.83
                               96.58    -76.83  27325.74

     local   stress (kbar) -14822.96   2919.64   3518.62
                             2919.64 -32431.58   -519.33
                             3518.62   -519.33 -28729.16

     nonloc. stress (kbar)   6132.00      3.90    -16.01
                                3.90   6120.12     10.18
                              -16.01     10.18   6130.38

     hartree stress (kbar)  19720.47  -1319.25  -1653.12
                            -1319.25  27791.91    221.09
                            -1653.12    221.09  25674.94

     exc-cor stress (kbar)  -5274.09     -0.70      0.71
                               -0.70  -5273.07     -0.31
                                0.71     -0.31  -5273.40

     corecor stress (kbar)  -1741.60      0.25     -0.45
                                0.25  -1740.65      0.42
                               -0.45      0.42  -1740.02

     ewald   stress (kbar) -31288.04  -1579.02  -1944.81
                            -1579.02 -21607.03    364.18
                            -1944.81    364.18 -23061.60

     hubbard stress (kbar)   -343.12     -0.90     -1.56
                               -0.90   -331.87      0.55
                               -1.56      0.55   -326.55

     DFT-D   stress (kbar)      0.00      0.00      0.00
                                0.00      0.00      0.00
                                0.00      0.00      0.00

     XDM     stress (kbar)      0.00      0.00      0.00
                                0.00      0.00      0.00
                                0.00      0.00      0.00

     dft-nl  stress (kbar)      0.00      0.00      0.00
                                0.00      0.00      0.00
                                0.00      0.00      0.00

     TS-vdW  stress (kbar)      0.00      0.00      0.00
                                0.00      0.00      0.00
                                0.00      0.00      0.00

     MDB     stress (kbar)      0.00      0.00      0.00
                                0.00      0.00      0.00
                                0.00      0.00      0.00

     3D-RISM stress (kbar)      0.00      0.00      0.00
                                0.00      0.00      0.00
                                0.00      0.00      0.00


     Writing all to output data dir ./out/aiida.save/ :
     XML data file, charge density, pseudopotentials, collected wavefunctions
 
     init_run     :     27.66s CPU     61.64s WALL (       2 calls)
     electrons    :   3650.95s CPU   3679.52s WALL (       2 calls)
     forces       :    182.05s CPU    183.45s WALL (       2 calls)
     stress       :    244.75s CPU    246.69s WALL (       2 calls)

     Called by init_run:
     wfcinit      :     22.68s CPU     56.04s WALL (       2 calls)
     wfcinit:atom :      0.62s CPU      0.62s WALL (     246 calls)
     wfcinit:wfcr :      5.52s CPU      5.56s WALL (     246 calls)
     potinit      :      0.68s CPU      0.91s WALL (       2 calls)
     hinit0       :      3.35s CPU      3.54s WALL (       2 calls)

     Called by electrons:
     c_bands      :   2516.63s CPU   2539.01s WALL (      96 calls)
     sum_band     :   1099.79s CPU   1104.94s WALL (      96 calls)
     v_of_rho     :      1.87s CPU      1.93s WALL (      98 calls)
     v_h          :      0.63s CPU      0.64s WALL (      98 calls)
     v_xc         :      1.29s CPU      1.34s WALL (     102 calls)
     newd         :      2.74s CPU      2.83s WALL (      98 calls)
     PAW_pot      :     19.42s CPU     19.52s WALL (      98 calls)
     mix_rho      :      5.11s CPU      5.25s WALL (      96 calls)

     Called by c_bands:
     init_us_2    :     41.49s CPU     41.82s WALL (   49938 calls)
     cegterg      :   1999.34s CPU   2011.25s WALL (   23864 calls)

     Called by sum_band:
     sum_band:wei :      4.40s CPU      4.41s WALL (      96 calls)
     sum_band:loo :    431.18s CPU    433.33s WALL (      96 calls)
     sum_band:buf :    184.28s CPU    185.28s WALL (   23616 calls)
     sum_band:ini :     19.67s CPU     19.81s WALL (   23616 calls)
     sum_band:cal :      1.15s CPU      1.16s WALL (   23616 calls)
     sum_band:bec :     45.15s CPU     45.37s WALL (   23616 calls)
     addusdens    :      5.60s CPU      5.66s WALL (      96 calls)
                                        5.65s GPU  (      96 calls)
     addusd:skk   :      0.08s CPU      0.08s WALL (     288 calls)
                                        0.08s GPU  (     288 calls)

     Called by *egterg:
     cdiaghg      :    570.16s CPU    573.35s WALL (  120132 calls)
                                      572.53s GPU  (  120132 calls)
     cegterg:over :     94.15s CPU     94.54s WALL (   95286 calls)
     cegterg:upda :    103.45s CPU    103.88s WALL (   95286 calls)
     cegterg:last :     55.40s CPU     55.66s WALL (   57729 calls)
     h_psi        :   1007.61s CPU   1015.53s WALL (  119396 calls)
     s_psi        :    129.91s CPU    130.71s WALL (  121856 calls)
     g_psi        :      4.13s CPU      4.15s WALL (   95286 calls)

     Called by h_psi:
     h_psi:calbec :      3.37s CPU      3.44s WALL (  119396 calls)
     vloc_psi     :    828.76s CPU    835.53s WALL (  119396 calls)
                                      834.74s GPU  (  119396 calls)
     add_vuspsi   :    110.30s CPU    112.00s WALL (  119396 calls)
     vhpsi        :     56.77s CPU     57.17s WALL (  119396 calls)

     General routines
     calbec       :    489.57s CPU    491.87s WALL ( 1719220 calls)
     fft          :      2.72s CPU      2.91s WALL (    2526 calls)
                                        0.20s GPU  (    2330 calls)
     ffts         :      0.76s CPU      0.77s WALL (     388 calls)
                                        0.01s GPU  (     192 calls)
     fftw         :     13.53s CPU    683.89s WALL ( 1751362 calls)
                                      672.25s GPU  ( 1751362 calls)
     interpolate  :      3.92s CPU      3.95s WALL (     196 calls)
 
     Parallel routines

     Hubbard U routines
     new_ns       :    655.04s CPU    657.93s WALL (      96 calls)
     vhpsi        :     56.77s CPU     57.17s WALL (  119396 calls)
     force_hub    :    174.47s CPU    175.84s WALL (       2 calls)
     stres_hub    :    232.13s CPU    234.00s WALL (       2 calls)

     PAW routines
     PAW_pot      :     19.42s CPU     19.52s WALL (      98 calls)
     PAW_symme    :      0.02s CPU      0.02s WALL (     193 calls)
 
     PWSCF        :      1h 8m CPU      1h10m WALL

 
   This run was terminated on:  16:58:56  14Oct2025            

=------------------------------------------------------------------------------=
   JOB DONE.
=------------------------------------------------------------------------------=
