
     Program PWSCF v.7.4.1 starts on 15Oct2025 at  9:31:13 

     This program is part of the open-source Quantum ESPRESSO suite
     for quantum simulation of materials; please cite
         "P. Giannozzi et al., J. Phys.:Condens. Matter 21 395502 (2009);
         "P. Giannozzi et al., J. Phys.:Condens. Matter 29 465901 (2017);
         "P. Giannozzi et al., J. Chem. Phys. 152 154105 (2020);
          URL http://www.quantum-espresso.org", 
     in publications or presentations arising from this work. More details at
     http://www.quantum-espresso.org/quote

     Parallel version (MPI & OpenMP), running on       1 processor cores
     Number of MPI processes:                 1
     Threads/MPI process:                     1

     MPI processes distributed on     1 nodes
     419773 MiB available memory on the printing compute node when the environment starts
 
     Reading input from pwscf.in
Warning: card &FCP ignored
Warning: card &RISM ignored

     Current dimensions of program PWSCF are:
     Max number of different atomic species (ntypx) = 10
     Max number of k-points (npk) =  40000
     Max angular momentum in pseudopotentials (lmaxx) =  4
     file O.pbesol-n-kjpaw_psl.0.1.UPF: wavefunction(s)  2P renormalized
 check tnoseh fnoseh  F    1.000000000000000     
     Message from routine setup:
     using ibrav=0 with symmetry is DISCOURAGED, use correct ibrav instead
 
     Subspace diagonalization in iterative solution of the eigenvalue problem:
     a serial algorithm will be used

 
     G-vector sticks info
     --------------------
     sticks:   dense  smooth     PW     G-vecs:    dense   smooth      PW
     Sum        4971    2487    677               762873   269753   38497
 
     Using Slab Decomposition
 


     bravais-lattice index     =            0
     lattice parameter (alat)  =      12.7473  a.u.
     unit-cell volume          =    5647.4025 (a.u.)^3
     number of atoms/cell      =           60
     number of atomic types    =            3
     number of electrons       =       380.00
     number of Kohn-Sham states=          228
     kinetic-energy cutoff     =      50.0000  Ry
     charge density cutoff     =     400.0000  Ry
     scf convergence threshold =      1.4E-08
     mixing beta               =       0.7000
     number of iterations used =            8  plain     mixing
     energy convergence thresh.=      6.8E-04
     force convergence thresh. =      1.0E-04
     press convergence thresh. =      5.0E-01
     Exchange-correlation= PBESOL
                           (   1   4  10   8   0   0   0)
     nstep                     =          180


     GPU acceleration is ACTIVE.  1 visible GPUs per MPI rank
     GPU-aware MPI enabled


     GPU used by master process:

        Device Number: 0
        Device name: NVIDIA A100-SXM-64GB
        Compute capability : 80
        Ratio of single to double precision performance  : 2
        Memory Clock Rate (KHz): 1593000
        Memory Bus Width (bits): 4096
        Peak Memory Bandwidth (GB/s): ******
     Hubbard projectors: ortho-atomic
     Hubbard parameters of DFT+U (Dudarev formulation) in eV:
     U(Cr-3d) =  3.0000

     Internal variables: lda_plus_u = T, lda_plus_u_kind = 0

     celldm(1)=  12.747282  celldm(2)=   0.000000  celldm(3)=   0.000000
     celldm(4)=   0.000000  celldm(5)=   0.000000  celldm(6)=   0.000000

     crystal axes: (cart. coord. in units of alat)
               a(1) = (   1.000000   0.000000   0.000000 )  
               a(2) = (   0.000000   0.961877   0.000000 )  
               a(3) = (   0.000000   0.461079   2.834500 )  

     reciprocal axes: (cart. coord. in units 2 pi/alat)
               b(1) = (  1.000000  0.000000  0.000000 )  
               b(2) = (  0.000000  1.039634 -0.169114 )  
               b(3) = (  0.000000  0.000000  0.352796 )  


     PseudoPot. # 1 for Cr read from file:
     /leonardo_scratch/large/userexternal/nalghamd/mc_mace/GNoME-screening/2_space_group_DFT/pseudo_SSSP1.3_aiida/cr_pbesol_v1.5.uspp.F.UPF
     MD5 check sum: a621641e0be27168676a837af8893d0f
     Pseudo is Ultrasoft + core correction, Zval = 14.0
     Generated by new atomic code, or converted to UPF format
     Using radial grid of  857 points,  6 beta functions with: 
                l(1) =   0
                l(2) =   0
                l(3) =   1
                l(4) =   1
                l(5) =   2
                l(6) =   2
     Q(r) pseudized with  8 coefficients,  rinner =    0.950   0.950   0.950
                                                       0.950   0.950

     PseudoPot. # 2 for O  read from file:
     /leonardo_scratch/large/userexternal/nalghamd/mc_mace/GNoME-screening/2_space_group_DFT/pseudo_SSSP1.3_aiida/O.pbesol-n-kjpaw_psl.0.1.UPF
     MD5 check sum: 81d73d1479e654e5638b0319f0d6c2c7
     Pseudo is Projector augmented-wave + core cor, Zval =  6.0
     Generated using "atomic" code by A. Dal Corso  v.6.0 svn rev. 13079
     Shape of augmentation charge: BESSEL
     Using radial grid of 1095 points,  4 beta functions with: 
                l(1) =   0
                l(2) =   0
                l(3) =   1
                l(4) =   1
     Q(r) pseudized with 0 coefficients 


     PseudoPot. # 3 for P  read from file:
     /leonardo_scratch/large/userexternal/nalghamd/mc_mace/GNoME-screening/2_space_group_DFT/pseudo_SSSP1.3_aiida/P.pbesol-n-rrkjus_psl.1.0.0.UPF
     MD5 check sum: bbb94b1b16383820d6a769669b5d42db
     Pseudo is Ultrasoft + core correction, Zval =  5.0
     Generated using "atomic" code by A. Dal Corso  v.6.0 svn rev. 13079
     Using radial grid of 1147 points,  6 beta functions with: 
                l(1) =   0
                l(2) =   0
                l(3) =   1
                l(4) =   1
                l(5) =   2
                l(6) =   2
     Q(r) pseudized with 0 coefficients 


     atomic species   valence    mass     pseudopotential
     Cr               14.00    51.99610     Cr( 1.00)
     O                 6.00    15.99940     O ( 1.00)
     P                 5.00    30.97376     P ( 1.00)

     Starting magnetic structure 
     atomic species   magnetization
     Cr              0.100
     O               0.357
     P               0.100

      4 Sym. Ops., with inversion, found ( 2 have fractional translation)


                                    s                        frac. trans.

      isym =  1     identity                                     

 cryst.   s( 1) = (     1          0          0      )
                  (     0          1          0      )
                  (     0          0          1      )

 cart.    s( 1) = (  1.0000000  0.0000000  0.0000000 )
                  (  0.0000000  1.0000000 -0.0000000 )
                  (  0.0000000  0.0000000  1.0000000 )


      isym =  2     180 deg rotation - cart. axis [1,0,0]        

 cryst.   s( 2) = (     1          0          0      )    f =(  0.5000000 )
                  (     0         -1          0      )       ( -0.0000000 )
                  (     0          0         -1      )       (  0.5000000 )

 cart.    s( 2) = (  1.0000000  0.0000000  0.0000000 )    f =(  0.5000000 )
                  (  0.0000000 -1.0000000  0.0000000 )       (  0.2305397 )
                  (  0.0000000  0.0000000 -1.0000000 )       (  1.4172500 )


      isym =  3     inversion                                    

 cryst.   s( 3) = (    -1          0          0      )
                  (     0         -1          0      )
                  (     0          0         -1      )

 cart.    s( 3) = ( -1.0000000  0.0000000  0.0000000 )
                  (  0.0000000 -1.0000000  0.0000000 )
                  (  0.0000000  0.0000000 -1.0000000 )


      isym =  4     inv. 180 deg rotation - cart. axis [1,0,0]   

 cryst.   s( 4) = (    -1          0          0      )    f =(  0.5000000 )
                  (     0          1          0      )       ( -0.0000000 )
                  (     0          0          1      )       (  0.5000000 )

 cart.    s( 4) = ( -1.0000000  0.0000000  0.0000000 )    f =(  0.5000000 )
                  (  0.0000000  1.0000000 -0.0000000 )       (  0.2305397 )
                  (  0.0000000  0.0000000  1.0000000 )       (  1.4172500 )


   Cartesian axes

     site n.     atom                  positions (alat units)
         1        Cr     tau(   1) = (   0.6447510   0.3379155   1.7637648  )
         2        Cr     tau(   2) = (   0.1447510   1.3155806   2.4879852  )
         3        Cr     tau(   3) = (   0.3552490   1.0850409   1.0707352  )
         4        Cr     tau(   4) = (   0.8552490   0.1073758   0.3465148  )
         5        P      tau(   5) = (   0.6565310   0.8224207   1.6655238  )
         6        P      tau(   6) = (   0.1565310   0.8310754   2.5862261  )
         7        P      tau(   7) = (   0.3434690   0.6005357   1.1689761  )
         8        P      tau(   8) = (   0.8434690   0.5918810   0.2482739  )
         9        P      tau(   9) = (   0.2971330   1.0506325   1.5538757  )
        10        P      tau(  10) = (   0.7971330   0.6028636   2.6978742  )
        11        P      tau(  11) = (   0.7028670   0.3723239   1.2806242  )
        12        P      tau(  12) = (   0.2028670   0.8200928   0.1366257  )
        13        P      tau(  13) = (   0.4870610   1.1414049   2.1922618  )
        14        P      tau(  14) = (   0.9870610   0.5120912   2.0594881  )
        15        P      tau(  15) = (   0.5129390   0.2815515   0.6422382  )
        16        P      tau(  16) = (   0.0129390   0.9108652   0.7750118  )
        17        O      tau(  17) = (   0.3719860   0.2861499   1.6471789  )
        18        O      tau(  18) = (   0.8719860   1.3673463   2.6045710  )
        19        O      tau(  19) = (   0.6280140   1.1368065   1.1873210  )
        20        O      tau(  20) = (   0.1280140   0.0556102   0.2299290  )
        21        O      tau(  21) = (   0.7024560   0.9964873   1.8091281  )
        22        O      tau(  22) = (   0.2024560   0.6570089   2.4426218  )
        23        O      tau(  23) = (   0.2975440   0.4264691   1.0253719  )
        24        O      tau(  24) = (   0.7975440   0.7659476   0.3918781  )
        25        O      tau(  25) = (   0.1597700   0.9391179   1.6907991  )
        26        O      tau(  26) = (   0.6597700   0.7143782   2.5609509  )
        27        O      tau(  27) = (   0.8402300   0.4838385   1.1437009  )
        28        O      tau(  28) = (   0.3402300   0.7085782   0.2735491  )
        29        O      tau(  29) = (   0.5657440   0.6401307   1.7721095  )
        30        O      tau(  30) = (   0.0657440   1.0133654   2.4796404  )
        31        O      tau(  31) = (   0.4342560   0.7828257   1.0623904  )
        32        O      tau(  32) = (   0.9342560   0.4095910   0.3548596  )
        33        O      tau(  33) = (   0.8278510   0.7632917   1.5326340  )
        34        O      tau(  34) = (   0.3278510   0.8902045   2.7191160  )
        35        O      tau(  35) = (   0.1721490   0.6596647   1.3018660  )
        36        O      tau(  36) = (   0.6721490   0.5327520   0.1153840  )
        37        O      tau(  37) = (   0.7789630   0.3358071   1.4926108  )
        38        O      tau(  38) = (   0.2789630   1.3176890   2.7591391  )
        39        O      tau(  39) = (   0.2210370   1.0871493   1.3418891  )
        40        O      tau(  40) = (   0.7210370   0.1052674   0.0753609  )
        41        O      tau(  41) = (   0.4897250   0.9081335   1.5169195  )
        42        O      tau(  42) = (   0.9897250   0.7453626   2.7348304  )
        43        O      tau(  43) = (   0.5102750   0.5148229   1.3175805  )
        44        O      tau(  44) = (   0.0102750   0.6775938   0.0996695  )
        45        O      tau(  45) = (   0.5335460   0.3456307   2.0388275  )
        46        O      tau(  46) = (   0.0335460   1.3078654   2.2129225  )
        47        O      tau(  47) = (   0.4664540   1.0773257   0.7956725  )
        48        O      tau(  48) = (   0.9664540   0.1150910   0.6215775  )
        49        O      tau(  49) = (   0.3325860   0.9910469   2.1221533  )
        50        O      tau(  50) = (   0.8325860   0.6624493   2.1295967  )
        51        O      tau(  51) = (   0.6674140   0.4319096   0.7123467  )
        52        O      tau(  52) = (   0.1674140   0.7605071   0.7049033  )
        53        O      tau(  53) = (   0.9180480   0.3944825   1.8676945  )
        54        O      tau(  54) = (   0.4180480   1.2590136   2.3840554  )
        55        O      tau(  55) = (   0.0819520   1.0284739   0.9668054  )
        56        O      tau(  56) = (   0.5819520   0.1639428   0.4504446  )
        57        O      tau(  57) = (   0.6737270   1.0267267   2.2583453  )
        58        O      tau(  58) = (   0.1737270   0.6267694   1.9934046  )
        59        O      tau(  59) = (   0.3262730   0.3962297   0.5761546  )
        60        O      tau(  60) = (   0.8262730   0.7961870   0.8410953  )

   Crystallographic axes

     site n.     atom                  positions (cryst. coord.)
         1        Cr     tau(   1) = (  0.6447510  0.0530310  0.6222490  )
         2        Cr     tau(   2) = (  0.1447510  0.9469690  0.8777510  )
         3        Cr     tau(   3) = (  0.3552490  0.9469690  0.3777510  )
         4        Cr     tau(   4) = (  0.8552490  0.0530310  0.1222490  )
         5        P      tau(   5) = (  0.6565310  0.5733530  0.5875900  )
         6        P      tau(   6) = (  0.1565310  0.4266470  0.9124100  )
         7        P      tau(   7) = (  0.3434690  0.4266470  0.4124100  )
         8        P      tau(   8) = (  0.8434690  0.5733530  0.0875900  )
         9        P      tau(   9) = (  0.2971330  0.8294910  0.5482010  )
        10        P      tau(  10) = (  0.7971330  0.1705090  0.9517990  )
        11        P      tau(  11) = (  0.7028670  0.1705090  0.4517990  )
        12        P      tau(  12) = (  0.2028670  0.8294910  0.0482010  )
        13        P      tau(  13) = (  0.4870610  0.8159010  0.7734210  )
        14        P      tau(  14) = (  0.9870610  0.1840990  0.7265790  )
        15        P      tau(  15) = (  0.5129390  0.1840990  0.2265790  )
        16        P      tau(  16) = (  0.0129390  0.8159010  0.2734210  )
        17        O      tau(  17) = (  0.3719860  0.0189300  0.5811180  )
        18        O      tau(  18) = (  0.8719860  0.9810700  0.9188820  )
        19        O      tau(  19) = (  0.6280140  0.9810700  0.4188820  )
        20        O      tau(  20) = (  0.1280140  0.0189300  0.0811180  )
        21        O      tau(  21) = (  0.7024560  0.7300330  0.6382530  )
        22        O      tau(  22) = (  0.2024560  0.2699670  0.8617470  )
        23        O      tau(  23) = (  0.2975440  0.2699670  0.3617470  )
        24        O      tau(  24) = (  0.7975440  0.7300330  0.1382530  )
        25        O      tau(  25) = (  0.1597700  0.6904010  0.5965070  )
        26        O      tau(  26) = (  0.6597700  0.3095990  0.9034930  )
        27        O      tau(  27) = (  0.8402300  0.3095990  0.4034930  )
        28        O      tau(  28) = (  0.3402300  0.6904010  0.0965070  )
        29        O      tau(  29) = (  0.5657440  0.3658130  0.6251930  )
        30        O      tau(  30) = (  0.0657440  0.6341870  0.8748070  )
        31        O      tau(  31) = (  0.4342560  0.6341870  0.3748070  )
        32        O      tau(  32) = (  0.9342560  0.3658130  0.1251930  )
        33        O      tau(  33) = (  0.8278510  0.5343540  0.5407070  )
        34        O      tau(  34) = (  0.3278510  0.4656460  0.9592930  )
        35        O      tau(  35) = (  0.1721490  0.4656460  0.4592930  )
        36        O      tau(  36) = (  0.6721490  0.5343540  0.0407070  )
        37        O      tau(  37) = (  0.7789630  0.0966950  0.5265870  )
        38        O      tau(  38) = (  0.2789630  0.9033050  0.9734130  )
        39        O      tau(  39) = (  0.2210370  0.9033050  0.4734130  )
        40        O      tau(  40) = (  0.7210370  0.0966950  0.0265870  )
        41        O      tau(  41) = (  0.4897250  0.6875940  0.5351630  )
        42        O      tau(  42) = (  0.9897250  0.3124060  0.9648370  )
        43        O      tau(  43) = (  0.5102750  0.3124060  0.4648370  )
        44        O      tau(  44) = (  0.0102750  0.6875940  0.0351630  )
        45        O      tau(  45) = (  0.5335460  0.0145350  0.7192900  )
        46        O      tau(  46) = (  0.0335460  0.9854650  0.7807100  )
        47        O      tau(  47) = (  0.4664540  0.9854650  0.2807100  )
        48        O      tau(  48) = (  0.9664540  0.0145350  0.2192900  )
        49        O      tau(  49) = (  0.3325860  0.6714400  0.7486870  )
        50        O      tau(  50) = (  0.8325860  0.3285600  0.7513130  )
        51        O      tau(  51) = (  0.6674140  0.3285600  0.2513130  )
        52        O      tau(  52) = (  0.1674140  0.6714400  0.2486870  )
        53        O      tau(  53) = (  0.9180480  0.0942640  0.6589150  )
        54        O      tau(  54) = (  0.4180480  0.9057360  0.8410850  )
        55        O      tau(  55) = (  0.0819520  0.9057360  0.3410850  )
        56        O      tau(  56) = (  0.5819520  0.0942640  0.1589150  )
        57        O      tau(  57) = (  0.6737270  0.6855020  0.7967350  )
        58        O      tau(  58) = (  0.1737270  0.3144980  0.7032650  )
        59        O      tau(  59) = (  0.3262730  0.3144980  0.2032650  )
        60        O      tau(  60) = (  0.8262730  0.6855020  0.2967350  )

     number of k points=    44  Marzari-Vanderbilt smearing, width (Ry)=  0.0200
                       cart. coord. in units 2pi/alat
        k(    1) = (   0.0000000   0.0000000   0.0000000), wk =   0.0068027
        k(    2) = (   0.0000000   0.0000000   0.1175986), wk =   0.0136054
        k(    3) = (   0.0000000   0.1485191  -0.0241592), wk =   0.0136054
        k(    4) = (   0.0000000   0.1485191   0.0934395), wk =   0.0136054
        k(    5) = (   0.0000000   0.1485191  -0.1417578), wk =   0.0136054
        k(    6) = (   0.0000000   0.2970383  -0.0483183), wk =   0.0136054
        k(    7) = (   0.0000000   0.2970383   0.0692803), wk =   0.0136054
        k(    8) = (   0.0000000   0.2970383  -0.1659169), wk =   0.0136054
        k(    9) = (   0.0000000   0.4455574  -0.0724775), wk =   0.0136054
        k(   10) = (   0.0000000   0.4455574   0.0451212), wk =   0.0136054
        k(   11) = (   0.0000000   0.4455574  -0.1900761), wk =   0.0136054
        k(   12) = (   0.1428571   0.0000000   0.0000000), wk =   0.0136054
        k(   13) = (   0.1428571   0.0000000   0.1175986), wk =   0.0272109
        k(   14) = (   0.1428571   0.1485191  -0.0241592), wk =   0.0272109
        k(   15) = (   0.1428571   0.1485191   0.0934395), wk =   0.0272109
        k(   16) = (   0.1428571   0.1485191  -0.1417578), wk =   0.0272109
        k(   17) = (   0.1428571   0.2970383  -0.0483183), wk =   0.0272109
        k(   18) = (   0.1428571   0.2970383   0.0692803), wk =   0.0272109
        k(   19) = (   0.1428571   0.2970383  -0.1659169), wk =   0.0272109
        k(   20) = (   0.1428571   0.4455574  -0.0724775), wk =   0.0272109
        k(   21) = (   0.1428571   0.4455574   0.0451212), wk =   0.0272109
        k(   22) = (   0.1428571   0.4455574  -0.1900761), wk =   0.0272109
        k(   23) = (   0.2857143   0.0000000   0.0000000), wk =   0.0136054
        k(   24) = (   0.2857143   0.0000000   0.1175986), wk =   0.0272109
        k(   25) = (   0.2857143   0.1485191  -0.0241592), wk =   0.0272109
        k(   26) = (   0.2857143   0.1485191   0.0934395), wk =   0.0272109
        k(   27) = (   0.2857143   0.1485191  -0.1417578), wk =   0.0272109
        k(   28) = (   0.2857143   0.2970383  -0.0483183), wk =   0.0272109
        k(   29) = (   0.2857143   0.2970383   0.0692803), wk =   0.0272109
        k(   30) = (   0.2857143   0.2970383  -0.1659169), wk =   0.0272109
        k(   31) = (   0.2857143   0.4455574  -0.0724775), wk =   0.0272109
        k(   32) = (   0.2857143   0.4455574   0.0451212), wk =   0.0272109
        k(   33) = (   0.2857143   0.4455574  -0.1900761), wk =   0.0272109
        k(   34) = (   0.4285714   0.0000000   0.0000000), wk =   0.0136054
        k(   35) = (   0.4285714   0.0000000   0.1175986), wk =   0.0272109
        k(   36) = (   0.4285714   0.1485191  -0.0241592), wk =   0.0272109
        k(   37) = (   0.4285714   0.1485191   0.0934395), wk =   0.0272109
        k(   38) = (   0.4285714   0.1485191  -0.1417578), wk =   0.0272109
        k(   39) = (   0.4285714   0.2970383  -0.0483183), wk =   0.0272109
        k(   40) = (   0.4285714   0.2970383   0.0692803), wk =   0.0272109
        k(   41) = (   0.4285714   0.2970383  -0.1659169), wk =   0.0272109
        k(   42) = (   0.4285714   0.4455574  -0.0724775), wk =   0.0272109
        k(   43) = (   0.4285714   0.4455574   0.0451212), wk =   0.0272109
        k(   44) = (   0.4285714   0.4455574  -0.1900761), wk =   0.0272109

                       cryst. coord.
        k(    1) = (   0.0000000   0.0000000   0.0000000), wk =   0.0068027
        k(    2) = (   0.0000000   0.0000000   0.3333333), wk =   0.0136054
        k(    3) = (   0.0000000   0.1428571   0.0000000), wk =   0.0136054
        k(    4) = (   0.0000000   0.1428571   0.3333333), wk =   0.0136054
        k(    5) = (   0.0000000   0.1428571  -0.3333333), wk =   0.0136054
        k(    6) = (   0.0000000   0.2857143   0.0000000), wk =   0.0136054
        k(    7) = (   0.0000000   0.2857143   0.3333333), wk =   0.0136054
        k(    8) = (   0.0000000   0.2857143  -0.3333333), wk =   0.0136054
        k(    9) = (   0.0000000   0.4285714   0.0000000), wk =   0.0136054
        k(   10) = (   0.0000000   0.4285714   0.3333333), wk =   0.0136054
        k(   11) = (   0.0000000   0.4285714  -0.3333333), wk =   0.0136054
        k(   12) = (   0.1428571   0.0000000   0.0000000), wk =   0.0136054
        k(   13) = (   0.1428571   0.0000000   0.3333333), wk =   0.0272109
        k(   14) = (   0.1428571   0.1428571   0.0000000), wk =   0.0272109
        k(   15) = (   0.1428571   0.1428571   0.3333333), wk =   0.0272109
        k(   16) = (   0.1428571   0.1428571  -0.3333333), wk =   0.0272109
        k(   17) = (   0.1428571   0.2857143   0.0000000), wk =   0.0272109
        k(   18) = (   0.1428571   0.2857143   0.3333333), wk =   0.0272109
        k(   19) = (   0.1428571   0.2857143  -0.3333333), wk =   0.0272109
        k(   20) = (   0.1428571   0.4285714   0.0000000), wk =   0.0272109
        k(   21) = (   0.1428571   0.4285714   0.3333333), wk =   0.0272109
        k(   22) = (   0.1428571   0.4285714  -0.3333333), wk =   0.0272109
        k(   23) = (   0.2857143   0.0000000   0.0000000), wk =   0.0136054
        k(   24) = (   0.2857143   0.0000000   0.3333333), wk =   0.0272109
        k(   25) = (   0.2857143   0.1428571   0.0000000), wk =   0.0272109
        k(   26) = (   0.2857143   0.1428571   0.3333333), wk =   0.0272109
        k(   27) = (   0.2857143   0.1428571  -0.3333333), wk =   0.0272109
        k(   28) = (   0.2857143   0.2857143   0.0000000), wk =   0.0272109
        k(   29) = (   0.2857143   0.2857143   0.3333333), wk =   0.0272109
        k(   30) = (   0.2857143   0.2857143  -0.3333333), wk =   0.0272109
        k(   31) = (   0.2857143   0.4285714   0.0000000), wk =   0.0272109
        k(   32) = (   0.2857143   0.4285714   0.3333333), wk =   0.0272109
        k(   33) = (   0.2857143   0.4285714  -0.3333333), wk =   0.0272109
        k(   34) = (   0.4285714   0.0000000   0.0000000), wk =   0.0136054
        k(   35) = (   0.4285714   0.0000000   0.3333333), wk =   0.0272109
        k(   36) = (   0.4285714   0.1428571   0.0000000), wk =   0.0272109
        k(   37) = (   0.4285714   0.1428571   0.3333333), wk =   0.0272109
        k(   38) = (   0.4285714   0.1428571  -0.3333333), wk =   0.0272109
        k(   39) = (   0.4285714   0.2857143   0.0000000), wk =   0.0272109
        k(   40) = (   0.4285714   0.2857143   0.3333333), wk =   0.0272109
        k(   41) = (   0.4285714   0.2857143  -0.3333333), wk =   0.0272109
        k(   42) = (   0.4285714   0.4285714   0.0000000), wk =   0.0272109
        k(   43) = (   0.4285714   0.4285714   0.3333333), wk =   0.0272109
        k(   44) = (   0.4285714   0.4285714  -0.3333333), wk =   0.0272109

     Dense  grid:   762873 G-vectors     FFT dimensions: (  90,  80, 240)

     Smooth grid:   269753 G-vectors     FFT dimensions: (  60,  60, 180)

     Dynamical RAM for                 wfc:     117.30 MB

     Dynamical RAM for     wfc (w. buffer):   10439.84 MB

     Dynamical RAM for             U proj.:      10.29 MB

     Dynamical RAM for  U proj. (w. buff.):     915.78 MB

     Dynamical RAM for           str. fact:      34.92 MB

     Dynamical RAM for           local pot:       0.00 MB

     Dynamical RAM for          nlocal pot:     329.27 MB

     Dynamical RAM for                qrad:       9.63 MB

     Dynamical RAM for          rho,v,vnew:     148.94 MB

     Dynamical RAM for               rhoin:      49.65 MB

     Dynamical RAM for            rho*nmix:     372.50 MB

     Dynamical RAM for           G-vectors:      45.71 MB

     Dynamical RAM for          h,s,v(r/c):       2.38 MB

     Dynamical RAM for          <psi|beta>:       2.23 MB

     Dynamical RAM for      wfcinit/wfcrot:     235.79 MB

     Dynamical RAM for           addusdens:    2688.96 MB

     Dynamical RAM for          addusforce:    3690.39 MB

     Dynamical RAM for         addusstress:    2357.20 MB

     Estimated static dynamical RAM per process >      11.82 GB

     Estimated max dynamical RAM per process >      15.78 GB

     Check: negative core charge=   -0.000003
     Generating pointlists ...
     new r_m :   0.1224 (alat units)  1.5606 (a.u.) for type    1
     new r_m :   0.0923 (alat units)  1.1764 (a.u.) for type    2
     new r_m :   0.0923 (alat units)  1.1764 (a.u.) for type    3

     Initial potential from superposition of free atoms

     starting charge     375.9980, renormalised to     380.0000

     negative rho (up, down):  1.603E-03 1.321E-03

     HUBBARD ENERGY =    0.4798  (Ry)

     STARTING HUBBARD OCCUPATIONS:

     =================== HUBBARD OCCUPATIONS ===================
     ------------------------ ATOM    1 ------------------------
     Tr[ns(  1)] (up, down, total) =   3.40000  0.00000  3.40000
     Atomic magnetic moment for atom   1 =   3.40000
     SPIN  1
     eigenvalues:
       0.680  0.680  0.680  0.680  0.680
     eigenvectors (columns):
       1.000  0.000  0.000  0.000  0.000
       0.000  1.000  0.000  0.000  0.000
       0.000  0.000  1.000  0.000  0.000
       0.000  0.000  0.000  1.000  0.000
       0.000  0.000  0.000  0.000  1.000
     occupation matrix ns (before diag.):
       0.680  0.000  0.000  0.000  0.000
       0.000  0.680  0.000  0.000  0.000
       0.000  0.000  0.680  0.000  0.000
       0.000  0.000  0.000  0.680  0.000
       0.000  0.000  0.000  0.000  0.680
     SPIN  2
     eigenvalues:
       0.000  0.000  0.000  0.000  0.000
     eigenvectors (columns):
       1.000  0.000  0.000  0.000  0.000
       0.000  1.000  0.000  0.000  0.000
       0.000  0.000  1.000  0.000  0.000
       0.000  0.000  0.000  1.000  0.000
       0.000  0.000  0.000  0.000  1.000
     occupation matrix ns (before diag.):
       0.000  0.000  0.000  0.000  0.000
       0.000  0.000  0.000  0.000  0.000
       0.000  0.000  0.000  0.000  0.000
       0.000  0.000  0.000  0.000  0.000
       0.000  0.000  0.000  0.000  0.000
     ------------------------ ATOM    2 ------------------------
     Tr[ns(  2)] (up, down, total) =   3.40000  0.00000  3.40000
     Atomic magnetic moment for atom   2 =   3.40000
     SPIN  1
     eigenvalues:
       0.680  0.680  0.680  0.680  0.680
     eigenvectors (columns):
       1.000  0.000  0.000  0.000  0.000
       0.000  1.000  0.000  0.000  0.000
       0.000  0.000  1.000  0.000  0.000
       0.000  0.000  0.000  1.000  0.000
       0.000  0.000  0.000  0.000  1.000
     occupation matrix ns (before diag.):
       0.680  0.000  0.000  0.000  0.000
       0.000  0.680  0.000  0.000  0.000
       0.000  0.000  0.680  0.000  0.000
       0.000  0.000  0.000  0.680  0.000
       0.000  0.000  0.000  0.000  0.680
     SPIN  2
     eigenvalues:
       0.000  0.000  0.000  0.000  0.000
     eigenvectors (columns):
       1.000  0.000  0.000  0.000  0.000
       0.000  1.000  0.000  0.000  0.000
       0.000  0.000  1.000  0.000  0.000
       0.000  0.000  0.000  1.000  0.000
       0.000  0.000  0.000  0.000  1.000
     occupation matrix ns (before diag.):
       0.000  0.000  0.000  0.000  0.000
       0.000  0.000  0.000  0.000  0.000
       0.000  0.000  0.000  0.000  0.000
       0.000  0.000  0.000  0.000  0.000
       0.000  0.000  0.000  0.000  0.000
     ------------------------ ATOM    3 ------------------------
     Tr[ns(  3)] (up, down, total) =   3.40000  0.00000  3.40000
     Atomic magnetic moment for atom   3 =   3.40000
     SPIN  1
     eigenvalues:
       0.680  0.680  0.680  0.680  0.680
     eigenvectors (columns):
       1.000  0.000  0.000  0.000  0.000
       0.000  1.000  0.000  0.000  0.000
       0.000  0.000  1.000  0.000  0.000
       0.000  0.000  0.000  1.000  0.000
       0.000  0.000  0.000  0.000  1.000
     occupation matrix ns (before diag.):
       0.680  0.000  0.000  0.000  0.000
       0.000  0.680  0.000  0.000  0.000
       0.000  0.000  0.680  0.000  0.000
       0.000  0.000  0.000  0.680  0.000
       0.000  0.000  0.000  0.000  0.680
     SPIN  2
     eigenvalues:
       0.000  0.000  0.000  0.000  0.000
     eigenvectors (columns):
       1.000  0.000  0.000  0.000  0.000
       0.000  1.000  0.000  0.000  0.000
       0.000  0.000  1.000  0.000  0.000
       0.000  0.000  0.000  1.000  0.000
       0.000  0.000  0.000  0.000  1.000
     occupation matrix ns (before diag.):
       0.000  0.000  0.000  0.000  0.000
       0.000  0.000  0.000  0.000  0.000
       0.000  0.000  0.000  0.000  0.000
       0.000  0.000  0.000  0.000  0.000
       0.000  0.000  0.000  0.000  0.000
     ------------------------ ATOM    4 ------------------------
     Tr[ns(  4)] (up, down, total) =   3.40000  0.00000  3.40000
     Atomic magnetic moment for atom   4 =   3.40000
     SPIN  1
     eigenvalues:
       0.680  0.680  0.680  0.680  0.680
     eigenvectors (columns):
       1.000  0.000  0.000  0.000  0.000
       0.000  1.000  0.000  0.000  0.000
       0.000  0.000  1.000  0.000  0.000
       0.000  0.000  0.000  1.000  0.000
       0.000  0.000  0.000  0.000  1.000
     occupation matrix ns (before diag.):
       0.680  0.000  0.000  0.000  0.000
       0.000  0.680  0.000  0.000  0.000
       0.000  0.000  0.680  0.000  0.000
       0.000  0.000  0.000  0.680  0.000
       0.000  0.000  0.000  0.000  0.680
     SPIN  2
     eigenvalues:
       0.000  0.000  0.000  0.000  0.000
     eigenvectors (columns):
       1.000  0.000  0.000  0.000  0.000
       0.000  1.000  0.000  0.000  0.000
       0.000  0.000  1.000  0.000  0.000
       0.000  0.000  0.000  1.000  0.000
       0.000  0.000  0.000  0.000  1.000
     occupation matrix ns (before diag.):
       0.000  0.000  0.000  0.000  0.000
       0.000  0.000  0.000  0.000  0.000
       0.000  0.000  0.000  0.000  0.000
       0.000  0.000  0.000  0.000  0.000
       0.000  0.000  0.000  0.000  0.000

     Number of occupied Hubbard levels =   13.6000

     Atomic wfc used for Hubbard projectors are orthogonalized

     Starting wfcs are  264 randomized atomic wfcs
     Checking if some PAW data can be deallocated... 

     total cpu time spent up to now is       18.4 secs

     Self-consistent Calculation
[tb_dev] Currently allocated     4.52E+00 Mbytes, locked:    0 /   3
[tb_pin] Currently allocated     0.00E+00 Mbytes, locked:    0 /   0

     iteration #  1     ecut=    50.00 Ry     beta= 0.70
     CG style diagonalization

---- Real-time Memory Report at c_bands before calling an iterative solver
         12644 MiB given to the printing process from OS
             0 MiB allocation reported by mallinfo(arena+hblkhd)
        407408 MiB available memory on the node where the printing process lives
     GPU memory used/free/total (MiB): 5848 / 59096 / 64944
------------------
     ethr =  1.00E-02,  avg # of iterations =  3.0

     =================== HUBBARD OCCUPATIONS ===================
     ------------------------ ATOM    1 ------------------------
     Tr[ns(  1)] (up, down, total) =   3.87362  0.77735  4.65097
     Atomic magnetic moment for atom   1 =   3.09627
     SPIN  1
     eigenvalues:
       0.281  0.607  0.995  0.995  0.996
     eigenvectors (columns):
      -0.567 -0.533 -0.497  0.006 -0.383
      -0.704 -0.077  0.516  0.033  0.481
      -0.087  0.102  0.074 -0.981 -0.123
       0.366 -0.771  0.503 -0.059 -0.124
       0.203 -0.325 -0.477 -0.184  0.769
     occupation matrix ns (before diag.):
       0.655 -0.301 -0.014 -0.011  0.015
      -0.301  0.639 -0.041  0.161  0.092
      -0.014 -0.041  0.986  0.053  0.025
      -0.011  0.161  0.053  0.669 -0.150
       0.015  0.092  0.025 -0.150  0.925
     SPIN  2
     eigenvalues:
       0.103  0.111  0.123  0.215  0.225
     eigenvectors (columns):
       0.300  0.377 -0.363 -0.631 -0.488
      -0.417 -0.267  0.521 -0.129 -0.683
       0.737 -0.655  0.066  0.038 -0.151
      -0.266 -0.448 -0.031 -0.724  0.450
       0.350  0.396  0.769 -0.244  0.263
     occupation matrix ns (before diag.):
       0.181  0.045  0.004  0.023 -0.003
       0.045  0.168  0.014 -0.026 -0.011
       0.004  0.014  0.110 -0.009 -0.007
       0.023 -0.026 -0.009  0.188  0.032
      -0.003 -0.011 -0.007  0.032  0.131
     ------------------------ ATOM    2 ------------------------
     Tr[ns(  2)] (up, down, total) =   3.87362  0.77735  4.65097
     Atomic magnetic moment for atom   2 =   3.09627
     SPIN  1
     eigenvalues:
       0.281  0.607  0.995  0.995  0.996
     eigenvectors (columns):
      -0.567  0.533 -0.497 -0.006 -0.383
       0.704 -0.077 -0.516  0.033 -0.481
      -0.087 -0.102  0.074  0.981 -0.123
       0.366  0.771  0.503  0.059 -0.124
      -0.203 -0.325  0.477 -0.184 -0.769
     occupation matrix ns (before diag.):
       0.655  0.301 -0.014 -0.011 -0.015
       0.301  0.639  0.041 -0.161  0.092
      -0.014  0.041  0.986  0.053 -0.025
      -0.011 -0.161  0.053  0.669  0.150
      -0.015  0.092 -0.025  0.150  0.925
     SPIN  2
     eigenvalues:
       0.103  0.111  0.123  0.215  0.225
     eigenvectors (columns):
      -0.300  0.377 -0.363 -0.631  0.488
      -0.417  0.267 -0.521  0.129 -0.683
      -0.737 -0.655  0.066  0.038  0.151
       0.266 -0.448 -0.031 -0.724 -0.450
       0.350 -0.396 -0.769  0.244  0.263
     occupation matrix ns (before diag.):
       0.181 -0.045  0.004  0.023  0.003
      -0.045  0.168 -0.014  0.026 -0.011
       0.004 -0.014  0.110 -0.009  0.007
       0.023  0.026 -0.009  0.188 -0.032
       0.003 -0.011  0.007 -0.032  0.131
     ------------------------ ATOM    3 ------------------------
     Tr[ns(  3)] (up, down, total) =   3.87362  0.77735  4.65097
     Atomic magnetic moment for atom   3 =   3.09627
     SPIN  1
     eigenvalues:
       0.281  0.607  0.995  0.995  0.996
     eigenvectors (columns):
      -0.567 -0.533 -0.497  0.006 -0.383
      -0.704 -0.077  0.516  0.033  0.481
      -0.087  0.102  0.074 -0.981 -0.123
       0.366 -0.771  0.503 -0.059 -0.124
       0.203 -0.325 -0.477 -0.184  0.769
     occupation matrix ns (before diag.):
       0.655 -0.301 -0.014 -0.011  0.015
      -0.301  0.639 -0.041  0.161  0.092
      -0.014 -0.041  0.986  0.053  0.025
      -0.011  0.161  0.053  0.669 -0.150
       0.015  0.092  0.025 -0.150  0.925
     SPIN  2
     eigenvalues:
       0.103  0.111  0.123  0.215  0.225
     eigenvectors (columns):
       0.300  0.377 -0.363 -0.631 -0.488
      -0.417 -0.267  0.521 -0.129 -0.683
       0.737 -0.655  0.066  0.038 -0.151
      -0.266 -0.448 -0.031 -0.724  0.450
       0.350  0.396  0.769 -0.244  0.263
     occupation matrix ns (before diag.):
       0.181  0.045  0.004  0.023 -0.003
       0.045  0.168  0.014 -0.026 -0.011
       0.004  0.014  0.110 -0.009 -0.007
       0.023 -0.026 -0.009  0.188  0.032
      -0.003 -0.011 -0.007  0.032  0.131
     ------------------------ ATOM    4 ------------------------
     Tr[ns(  4)] (up, down, total) =   3.87362  0.77735  4.65097
     Atomic magnetic moment for atom   4 =   3.09627
     SPIN  1
     eigenvalues:
       0.281  0.607  0.995  0.995  0.996
     eigenvectors (columns):
      -0.567  0.533 -0.497 -0.006 -0.383
       0.704 -0.077 -0.516  0.033 -0.481
      -0.087 -0.102  0.074  0.981 -0.123
       0.366  0.771  0.503  0.059 -0.124
      -0.203 -0.325  0.477 -0.184 -0.769
     occupation matrix ns (before diag.):
       0.655  0.301 -0.014 -0.011 -0.015
       0.301  0.639  0.041 -0.161  0.092
      -0.014  0.041  0.986  0.053 -0.025
      -0.011 -0.161  0.053  0.669  0.150
      -0.015  0.092 -0.025  0.150  0.925
     SPIN  2
     eigenvalues:
       0.103  0.111  0.123  0.215  0.225
     eigenvectors (columns):
      -0.300  0.377 -0.363 -0.631  0.488
      -0.417  0.267 -0.521  0.129 -0.683
      -0.737 -0.655  0.066  0.038  0.151
       0.266 -0.448 -0.031 -0.724 -0.450
       0.350 -0.396 -0.769  0.244  0.263
     occupation matrix ns (before diag.):
       0.181 -0.045  0.004  0.023  0.003
      -0.045  0.168 -0.014  0.026 -0.011
       0.004 -0.014  0.110 -0.009  0.007
       0.023  0.026 -0.009  0.188 -0.032
       0.003 -0.011  0.007 -0.032  0.131

     Number of occupied Hubbard levels =   18.6039

     negative rho (up, down):  0.000E+00 7.786E-03

     HUBBARD ENERGY =    0.4840  (Ry)

     total cpu time spent up to now is      385.8 secs

     total energy              =   -2662.69686577 Ry
     estimated scf accuracy    <      14.48186466 Ry

     total magnetization       =    32.43 Bohr mag/cell
     absolute magnetization    =    39.27 Bohr mag/cell
[tb_dev] Currently allocated     0.00E+00 Mbytes, locked:    0 /   0
[tb_pin] Currently allocated     0.00E+00 Mbytes, locked:    0 /   0

     iteration #  2     ecut=    50.00 Ry     beta= 0.70
     CG style diagonalization

---- Real-time Memory Report at c_bands before calling an iterative solver
         12740 MiB given to the printing process from OS
             0 MiB allocation reported by mallinfo(arena+hblkhd)
        411773 MiB available memory on the node where the printing process lives
     GPU memory used/free/total (MiB): 6006 / 58938 / 64944
------------------
     ethr =  3.81E-03,  avg # of iterations =  4.7

     =================== HUBBARD OCCUPATIONS ===================
     ------------------------ ATOM    1 ------------------------
     Tr[ns(  1)] (up, down, total) =   0.41739  0.25940  0.67679
     Atomic magnetic moment for atom   1 =   0.15799
     SPIN  1
     eigenvalues:
       0.046  0.053  0.077  0.115  0.126
     eigenvectors (columns):
       0.048  0.216 -0.567  0.362 -0.706
      -0.289 -0.064  0.679 -0.143 -0.657
       0.907 -0.324  0.134 -0.115 -0.204
      -0.095 -0.546  0.175  0.808  0.100
       0.288  0.739  0.412  0.428  0.134
     occupation matrix ns (before diag.):
       0.105  0.021  0.006  0.010 -0.003
       0.021  0.097  0.015 -0.009 -0.003
       0.006  0.015  0.052 -0.006 -0.006
       0.010 -0.009 -0.006  0.095  0.024
      -0.003 -0.003 -0.006  0.024  0.069
     SPIN  2
     eigenvalues:
       0.021  0.021  0.031  0.084  0.102
     eigenvectors (columns):
      -0.128  0.129 -0.579 -0.667 -0.432
       0.218 -0.053  0.681 -0.212 -0.664
      -0.945  0.181  0.232  0.089 -0.115
      -0.130 -0.417  0.311 -0.664  0.522
       0.164  0.880  0.225 -0.248  0.294
     occupation matrix ns (before diag.):
       0.067  0.028 -0.001  0.008 -0.001
       0.028  0.064  0.007 -0.017 -0.011
      -0.001  0.007  0.023 -0.008 -0.004
       0.008 -0.017 -0.008  0.072  0.023
      -0.001 -0.011 -0.004  0.023  0.033
     ------------------------ ATOM    2 ------------------------
     Tr[ns(  2)] (up, down, total) =   0.41739  0.25940  0.67679
     Atomic magnetic moment for atom   2 =   0.15799
     SPIN  1
     eigenvalues:
       0.046  0.053  0.077  0.115  0.126
     eigenvectors (columns):
       0.048 -0.216 -0.567 -0.362 -0.706
       0.289 -0.064 -0.679 -0.143  0.657
       0.907  0.324  0.134  0.115 -0.204
      -0.095  0.546  0.175 -0.808  0.100
      -0.288  0.739 -0.412  0.428 -0.134
     occupation matrix ns (before diag.):
       0.105 -0.021  0.006  0.010  0.003
      -0.021  0.097 -0.015  0.009 -0.003
       0.006 -0.015  0.052 -0.006  0.006
       0.010  0.009 -0.006  0.095 -0.024
       0.003 -0.003  0.006 -0.024  0.069
     SPIN  2
     eigenvalues:
       0.021  0.021  0.031  0.084  0.102
     eigenvectors (columns):
      -0.128 -0.129 -0.579 -0.667  0.432
      -0.218 -0.053 -0.681  0.212 -0.664
      -0.945 -0.181  0.232  0.089  0.115
      -0.130  0.417  0.311 -0.664 -0.522
      -0.164  0.880 -0.225  0.248  0.294
     occupation matrix ns (before diag.):
       0.067 -0.028 -0.001  0.008  0.001
      -0.028  0.064 -0.007  0.017 -0.011
      -0.001 -0.007  0.023 -0.008  0.004
       0.008  0.017 -0.008  0.072 -0.023
       0.001 -0.011  0.004 -0.023  0.033
     ------------------------ ATOM    3 ------------------------
     Tr[ns(  3)] (up, down, total) =   0.41739  0.25940  0.67679
     Atomic magnetic moment for atom   3 =   0.15799
     SPIN  1
     eigenvalues:
       0.046  0.053  0.077  0.115  0.126
     eigenvectors (columns):
       0.048  0.216 -0.567  0.362 -0.706
      -0.289 -0.064  0.679 -0.143 -0.657
       0.907 -0.324  0.134 -0.115 -0.204
      -0.095 -0.546  0.175  0.808  0.100
       0.288  0.739  0.412  0.428  0.134
     occupation matrix ns (before diag.):
       0.105  0.021  0.006  0.010 -0.003
       0.021  0.097  0.015 -0.009 -0.003
       0.006  0.015  0.052 -0.006 -0.006
       0.010 -0.009 -0.006  0.095  0.024
      -0.003 -0.003 -0.006  0.024  0.069
     SPIN  2
     eigenvalues:
       0.021  0.021  0.031  0.084  0.102
     eigenvectors (columns):
      -0.128  0.129 -0.579 -0.667 -0.432
       0.218 -0.053  0.681 -0.212 -0.664
      -0.945  0.181  0.232  0.089 -0.115
      -0.130 -0.417  0.311 -0.664  0.522
       0.164  0.880  0.225 -0.248  0.294
     occupation matrix ns (before diag.):
       0.067  0.028 -0.001  0.008 -0.001
       0.028  0.064  0.007 -0.017 -0.011
      -0.001  0.007  0.023 -0.008 -0.004
       0.008 -0.017 -0.008  0.072  0.023
      -0.001 -0.011 -0.004  0.023  0.033
     ------------------------ ATOM    4 ------------------------
     Tr[ns(  4)] (up, down, total) =   0.41739  0.25940  0.67679
     Atomic magnetic moment for atom   4 =   0.15799
     SPIN  1
     eigenvalues:
       0.046  0.053  0.077  0.115  0.126
     eigenvectors (columns):
       0.048 -0.216 -0.567 -0.362 -0.706
       0.289 -0.064 -0.679 -0.143  0.657
       0.907  0.324  0.134  0.115 -0.204
      -0.095  0.546  0.175 -0.808  0.100
      -0.288  0.739 -0.412  0.428 -0.134
     occupation matrix ns (before diag.):
       0.105 -0.021  0.006  0.010  0.003
      -0.021  0.097 -0.015  0.009 -0.003
       0.006 -0.015  0.052 -0.006  0.006
       0.010  0.009 -0.006  0.095 -0.024
       0.003 -0.003  0.006 -0.024  0.069
     SPIN  2
     eigenvalues:
       0.021  0.021  0.031  0.084  0.102
     eigenvectors (columns):
      -0.128 -0.129 -0.579 -0.667  0.432
      -0.218 -0.053 -0.681  0.212 -0.664
      -0.945 -0.181  0.232  0.089  0.115
      -0.130  0.417  0.311 -0.664 -0.522
      -0.164  0.880 -0.225  0.248  0.294
     occupation matrix ns (before diag.):
       0.067 -0.028 -0.001  0.008  0.001
      -0.028  0.064 -0.007  0.017 -0.011
      -0.001 -0.007  0.023 -0.008  0.004
       0.008  0.017 -0.008  0.072 -0.023
       0.001 -0.011  0.004 -0.023  0.033

     Number of occupied Hubbard levels =    2.7072

     negative rho (up, down):  0.000E+00 9.551E-03

     HUBBARD ENERGY =    0.6423  (Ry)

     total cpu time spent up to now is      839.2 secs

     total energy              =   -2663.91654436 Ry
     estimated scf accuracy    <      80.42365682 Ry

     total magnetization       =     4.01 Bohr mag/cell
     absolute magnetization    =    11.51 Bohr mag/cell
[tb_dev] Currently allocated     0.00E+00 Mbytes, locked:    0 /   0
[tb_pin] Currently allocated     0.00E+00 Mbytes, locked:    0 /   0

     iteration #  3     ecut=    50.00 Ry     beta= 0.70
     CG style diagonalization

---- Real-time Memory Report at c_bands before calling an iterative solver
         12782 MiB given to the printing process from OS
             0 MiB allocation reported by mallinfo(arena+hblkhd)
        418369 MiB available memory on the node where the printing process lives
     GPU memory used/free/total (MiB): 6006 / 58938 / 64944
------------------
     ethr =  3.81E-03,  avg # of iterations =  4.1

     =================== HUBBARD OCCUPATIONS ===================
     ------------------------ ATOM    1 ------------------------
     Tr[ns(  1)] (up, down, total) =   3.91535  1.03657  4.95191
     Atomic magnetic moment for atom   1 =   2.87878
     SPIN  1
     eigenvalues:
       0.363  0.578  0.989  0.992  0.993
     eigenvectors (columns):
       0.579 -0.521  0.419  0.447  0.133
       0.712 -0.044 -0.422 -0.553 -0.090
       0.066  0.115  0.499 -0.168 -0.840
      -0.345 -0.801 -0.353 -0.056 -0.335
      -0.185 -0.269  0.523 -0.681  0.396
     occupation matrix ns (before diag.):
       0.668 -0.269  0.000 -0.047  0.009
      -0.269  0.672 -0.027  0.139  0.079
       0.000 -0.027  0.984  0.053  0.019
      -0.047  0.139  0.053  0.652 -0.129
       0.009  0.079  0.019 -0.129  0.940
     SPIN  2
     eigenvalues:
       0.140  0.162  0.203  0.246  0.286
     eigenvectors (columns):
       0.179  0.424 -0.224  0.415 -0.752
      -0.333 -0.158  0.650 -0.359 -0.560
       0.797 -0.567  0.091 -0.042 -0.181
      -0.255 -0.398  0.299  0.825  0.082
       0.396  0.562  0.655  0.128  0.285
     occupation matrix ns (before diag.):
       0.248  0.035  0.011  0.019 -0.030
       0.035  0.227  0.022 -0.024 -0.003
       0.011  0.022  0.152  0.001 -0.011
       0.019 -0.024  0.001  0.222  0.022
      -0.030 -0.003 -0.011  0.022  0.188
     ------------------------ ATOM    2 ------------------------
     Tr[ns(  2)] (up, down, total) =   3.91535  1.03657  4.95191
     Atomic magnetic moment for atom   2 =   2.87878
     SPIN  1
     eigenvalues:
       0.363  0.578  0.989  0.992  0.993
     eigenvectors (columns):
       0.579  0.521 -0.419  0.447  0.133
      -0.712 -0.044 -0.422  0.553  0.090
       0.066 -0.115 -0.499 -0.168 -0.840
      -0.345  0.801  0.353 -0.056 -0.335
       0.185 -0.269  0.523  0.681 -0.396
     occupation matrix ns (before diag.):
       0.668  0.269  0.000 -0.047 -0.009
       0.269  0.672  0.027 -0.139  0.079
       0.000  0.027  0.984  0.053 -0.019
      -0.047 -0.139  0.053  0.652  0.129
      -0.009  0.079 -0.019  0.129  0.940
     SPIN  2
     eigenvalues:
       0.140  0.162  0.203  0.246  0.286
     eigenvectors (columns):
       0.179 -0.424 -0.224 -0.415 -0.752
       0.333 -0.158 -0.650 -0.359  0.560
       0.797  0.567  0.091  0.042 -0.181
      -0.255  0.398  0.299 -0.825  0.082
      -0.396  0.562 -0.655  0.128 -0.285
     occupation matrix ns (before diag.):
       0.248 -0.035  0.011  0.019  0.030
      -0.035  0.227 -0.022  0.024 -0.003
       0.011 -0.022  0.152  0.001  0.011
       0.019  0.024  0.001  0.222 -0.022
       0.030 -0.003  0.011 -0.022  0.188
     ------------------------ ATOM    3 ------------------------
     Tr[ns(  3)] (up, down, total) =   3.91535  1.03657  4.95191
     Atomic magnetic moment for atom   3 =   2.87878
     SPIN  1
     eigenvalues:
       0.363  0.578  0.989  0.992  0.993
     eigenvectors (columns):
       0.579 -0.521  0.419  0.447  0.133
       0.712 -0.044 -0.422 -0.553 -0.090
       0.066  0.115  0.499 -0.168 -0.840
      -0.345 -0.801 -0.353 -0.056 -0.335
      -0.185 -0.269  0.523 -0.681  0.396
     occupation matrix ns (before diag.):
       0.668 -0.269  0.000 -0.047  0.009
      -0.269  0.672 -0.027  0.139  0.079
       0.000 -0.027  0.984  0.053  0.019
      -0.047  0.139  0.053  0.652 -0.129
       0.009  0.079  0.019 -0.129  0.940
     SPIN  2
     eigenvalues:
       0.140  0.162  0.203  0.246  0.286
     eigenvectors (columns):
       0.179  0.424 -0.224  0.415 -0.752
      -0.333 -0.158  0.650 -0.359 -0.560
       0.797 -0.567  0.091 -0.042 -0.181
      -0.255 -0.398  0.299  0.825  0.082
       0.396  0.562  0.655  0.128  0.285
     occupation matrix ns (before diag.):
       0.248  0.035  0.011  0.019 -0.030
       0.035  0.227  0.022 -0.024 -0.003
       0.011  0.022  0.152  0.001 -0.011
       0.019 -0.024  0.001  0.222  0.022
      -0.030 -0.003 -0.011  0.022  0.188
     ------------------------ ATOM    4 ------------------------
     Tr[ns(  4)] (up, down, total) =   3.91535  1.03657  4.95191
     Atomic magnetic moment for atom   4 =   2.87878
     SPIN  1
     eigenvalues:
       0.363  0.578  0.989  0.992  0.993
     eigenvectors (columns):
       0.579  0.521 -0.419  0.447  0.133
      -0.712 -0.044 -0.422  0.553  0.090
       0.066 -0.115 -0.499 -0.168 -0.840
      -0.345  0.801  0.353 -0.056 -0.335
       0.185 -0.269  0.523  0.681 -0.396
     occupation matrix ns (before diag.):
       0.668  0.269  0.000 -0.047 -0.009
       0.269  0.672  0.027 -0.139  0.079
       0.000  0.027  0.984  0.053 -0.019
      -0.047 -0.139  0.053  0.652  0.129
      -0.009  0.079 -0.019  0.129  0.940
     SPIN  2
     eigenvalues:
       0.140  0.162  0.203  0.246  0.286
     eigenvectors (columns):
       0.179 -0.424 -0.224 -0.415 -0.752
       0.333 -0.158 -0.650 -0.359  0.560
       0.797  0.567  0.091  0.042 -0.181
      -0.255  0.398  0.299 -0.825  0.082
      -0.396  0.562 -0.655  0.128 -0.285
     occupation matrix ns (before diag.):
       0.248 -0.035  0.011  0.019  0.030
      -0.035  0.227 -0.022  0.024 -0.003
       0.011 -0.022  0.152  0.001  0.011
       0.019  0.024  0.001  0.222 -0.022
       0.030 -0.003  0.011 -0.022  0.188

     Number of occupied Hubbard levels =   19.8076

     negative rho (up, down):  0.000E+00 9.245E-03

     HUBBARD ENERGY =    0.6393  (Ry)

     total cpu time spent up to now is     1220.8 secs

     total energy              =   -2673.24504276 Ry
     estimated scf accuracy    <      11.76397874 Ry

     total magnetization       =    28.76 Bohr mag/cell
     absolute magnetization    =    32.18 Bohr mag/cell
[tb_dev] Currently allocated     0.00E+00 Mbytes, locked:    0 /   0
[tb_pin] Currently allocated     0.00E+00 Mbytes, locked:    0 /   0

     iteration #  4     ecut=    50.00 Ry     beta= 0.70
     CG style diagonalization

---- Real-time Memory Report at c_bands before calling an iterative solver
         12813 MiB given to the printing process from OS
             0 MiB allocation reported by mallinfo(arena+hblkhd)
        418421 MiB available memory on the node where the printing process lives
     GPU memory used/free/total (MiB): 6006 / 58938 / 64944
------------------
     ethr =  3.10E-03,  avg # of iterations =  3.2

     =================== HUBBARD OCCUPATIONS ===================
     ------------------------ ATOM    1 ------------------------
     Tr[ns(  1)] (up, down, total) =   2.81200  0.47606  3.28806
     Atomic magnetic moment for atom   1 =   2.33595
     SPIN  1
     eigenvalues:
       0.211  0.226  0.706  0.748  0.922
     eigenvectors (columns):
       0.470  0.609 -0.419  0.377 -0.300
       0.702  0.177  0.466 -0.440  0.254
       0.097 -0.083  0.423  0.802  0.401
      -0.471  0.718  0.040 -0.136  0.494
      -0.235  0.275  0.653  0.044 -0.664
     occupation matrix ns (before diag.):
       0.444 -0.238 -0.012 -0.135  0.018
      -0.238  0.469 -0.020  0.132  0.021
      -0.012 -0.020  0.759  0.090 -0.034
      -0.135  0.132  0.090  0.403 -0.221
       0.018  0.021 -0.034 -0.221  0.738
     SPIN  2
     eigenvalues:
       0.045  0.049  0.060  0.142  0.180
     eigenvectors (columns):
       0.103  0.156  0.569 -0.544 -0.588
      -0.233 -0.034 -0.677 -0.009 -0.697
       0.907 -0.362 -0.148  0.068 -0.143
      -0.124 -0.477 -0.252 -0.769  0.320
       0.313  0.785 -0.364 -0.329  0.215
     occupation matrix ns (before diag.):
       0.125  0.050  0.006  0.013 -0.002
       0.050  0.117  0.015 -0.027 -0.016
       0.006  0.015  0.049 -0.010 -0.007
       0.013 -0.027 -0.010  0.118  0.034
      -0.002 -0.016 -0.007  0.034  0.066
     ------------------------ ATOM    2 ------------------------
     Tr[ns(  2)] (up, down, total) =   2.81200  0.47606  3.28806
     Atomic magnetic moment for atom   2 =   2.33595
     SPIN  1
     eigenvalues:
       0.211  0.226  0.706  0.748  0.922
     eigenvectors (columns):
       0.470  0.609  0.419  0.377  0.300
      -0.702 -0.177  0.466  0.440  0.254
       0.097 -0.083 -0.423  0.802 -0.401
      -0.471  0.718 -0.040 -0.136 -0.494
       0.235 -0.275  0.653 -0.044 -0.664
     occupation matrix ns (before diag.):
       0.444  0.238 -0.012 -0.135 -0.018
       0.238  0.469  0.020 -0.132  0.021
      -0.012  0.020  0.759  0.090  0.034
      -0.135 -0.132  0.090  0.403  0.221
      -0.018  0.021  0.034  0.221  0.738
     SPIN  2
     eigenvalues:
       0.045  0.049  0.060  0.142  0.180
     eigenvectors (columns):
       0.103 -0.156  0.569 -0.544  0.588
       0.233 -0.034  0.677  0.009 -0.697
       0.907  0.362 -0.148  0.068  0.143
      -0.124  0.477 -0.252 -0.769 -0.320
      -0.313  0.785  0.364  0.329  0.215
     occupation matrix ns (before diag.):
       0.125 -0.050  0.006  0.013  0.002
      -0.050  0.117 -0.015  0.027 -0.016
       0.006 -0.015  0.049 -0.010  0.007
       0.013  0.027 -0.010  0.118 -0.034
       0.002 -0.016  0.007 -0.034  0.066
     ------------------------ ATOM    3 ------------------------
     Tr[ns(  3)] (up, down, total) =   2.81200  0.47606  3.28806
     Atomic magnetic moment for atom   3 =   2.33595
     SPIN  1
     eigenvalues:
       0.211  0.226  0.706  0.748  0.922
     eigenvectors (columns):
       0.470  0.609 -0.419  0.377 -0.300
       0.702  0.177  0.466 -0.440  0.254
       0.097 -0.083  0.423  0.802  0.401
      -0.471  0.718  0.040 -0.136  0.494
      -0.235  0.275  0.653  0.044 -0.664
     occupation matrix ns (before diag.):
       0.444 -0.238 -0.012 -0.135  0.018
      -0.238  0.469 -0.020  0.132  0.021
      -0.012 -0.020  0.759  0.090 -0.034
      -0.135  0.132  0.090  0.403 -0.221
       0.018  0.021 -0.034 -0.221  0.738
     SPIN  2
     eigenvalues:
       0.045  0.049  0.060  0.142  0.180
     eigenvectors (columns):
       0.103  0.156  0.569 -0.544 -0.588
      -0.233 -0.034 -0.677 -0.009 -0.697
       0.907 -0.362 -0.148  0.068 -0.143
      -0.124 -0.477 -0.252 -0.769  0.320
       0.313  0.785 -0.364 -0.329  0.215
     occupation matrix ns (before diag.):
       0.125  0.050  0.006  0.013 -0.002
       0.050  0.117  0.015 -0.027 -0.016
       0.006  0.015  0.049 -0.010 -0.007
       0.013 -0.027 -0.010  0.118  0.034
      -0.002 -0.016 -0.007  0.034  0.066
     ------------------------ ATOM    4 ------------------------
     Tr[ns(  4)] (up, down, total) =   2.81200  0.47606  3.28806
     Atomic magnetic moment for atom   4 =   2.33595
     SPIN  1
     eigenvalues:
       0.211  0.226  0.706  0.748  0.922
     eigenvectors (columns):
       0.470  0.609  0.419  0.377  0.300
      -0.702 -0.177  0.466  0.440  0.254
       0.097 -0.083 -0.423  0.802 -0.401
      -0.471  0.718 -0.040 -0.136 -0.494
       0.235 -0.275  0.653 -0.044 -0.664
     occupation matrix ns (before diag.):
       0.444  0.238 -0.012 -0.135 -0.018
       0.238  0.469  0.020 -0.132  0.021
      -0.012  0.020  0.759  0.090  0.034
      -0.135 -0.132  0.090  0.403  0.221
      -0.018  0.021  0.034  0.221  0.738
     SPIN  2
     eigenvalues:
       0.045  0.049  0.060  0.142  0.180
     eigenvectors (columns):
       0.103 -0.156  0.569 -0.544  0.588
       0.233 -0.034  0.677  0.009 -0.697
       0.907  0.362 -0.148  0.068  0.143
      -0.124  0.477 -0.252 -0.769 -0.320
      -0.313  0.785  0.364  0.329  0.215
     occupation matrix ns (before diag.):
       0.125 -0.050  0.006  0.013  0.002
      -0.050  0.117 -0.015  0.027 -0.016
       0.006 -0.015  0.049 -0.010  0.007
       0.013  0.027 -0.010  0.118 -0.034
       0.002 -0.016  0.007 -0.034  0.066

     Number of occupied Hubbard levels =   13.1522

     negative rho (up, down):  0.000E+00 1.040E-02

     HUBBARD ENERGY =    0.6247  (Ry)

     total cpu time spent up to now is     1497.6 secs

     total energy              =   -2677.84571566 Ry
     estimated scf accuracy    <      10.82079526 Ry

     total magnetization       =    19.79 Bohr mag/cell
     absolute magnetization    =    24.05 Bohr mag/cell
[tb_dev] Currently allocated     0.00E+00 Mbytes, locked:    0 /   0
[tb_pin] Currently allocated     0.00E+00 Mbytes, locked:    0 /   0

     iteration #  5     ecut=    50.00 Ry     beta= 0.70
     CG style diagonalization

---- Real-time Memory Report at c_bands before calling an iterative solver
         12836 MiB given to the printing process from OS
             0 MiB allocation reported by mallinfo(arena+hblkhd)
        418388 MiB available memory on the node where the printing process lives
     GPU memory used/free/total (MiB): 6006 / 58938 / 64944
------------------
     ethr =  2.85E-03,  avg # of iterations =  3.0

     =================== HUBBARD OCCUPATIONS ===================
     ------------------------ ATOM    1 ------------------------
     Tr[ns(  1)] (up, down, total) =   3.39738  0.53602  3.93340
     Atomic magnetic moment for atom   1 =   2.86136
     SPIN  1
     eigenvalues:
       0.242  0.245  0.928  0.981  1.002
     eigenvectors (columns):
      -0.230  0.745  0.589  0.002  0.214
       0.234  0.664 -0.687  0.060 -0.170
       0.123  0.029  0.316  0.409 -0.847
      -0.857  0.012 -0.220 -0.304 -0.353
      -0.378 -0.058 -0.182  0.858  0.290
     occupation matrix ns (before diag.):
       0.516 -0.303 -0.009 -0.147 -0.025
      -0.303  0.591 -0.021  0.136  0.086
      -0.009 -0.021  0.979  0.087  0.034
      -0.147  0.136  0.087  0.438 -0.243
      -0.025  0.086  0.034 -0.243  0.873
     SPIN  2
     eigenvalues:
       0.050  0.054  0.072  0.160  0.200
     eigenvectors (columns):
       0.001  0.242 -0.545 -0.509 -0.620
       0.140 -0.201  0.677  0.026 -0.694
      -0.969  0.151  0.114  0.099 -0.124
      -0.165 -0.469  0.213 -0.793  0.280
       0.120  0.811  0.432 -0.319  0.199
     occupation matrix ns (before diag.):
       0.143  0.055  0.005  0.015 -0.005
       0.055  0.132  0.015 -0.028 -0.016
       0.005  0.015  0.054 -0.014 -0.006
       0.015 -0.028 -0.014  0.133  0.037
      -0.005 -0.016 -0.006  0.037  0.074
     ------------------------ ATOM    2 ------------------------
     Tr[ns(  2)] (up, down, total) =   3.39738  0.53602  3.93340
     Atomic magnetic moment for atom   2 =   2.86136
     SPIN  1
     eigenvalues:
       0.242  0.245  0.928  0.981  1.002
     eigenvectors (columns):
       0.230  0.745 -0.589  0.002  0.214
       0.234 -0.664 -0.687 -0.060  0.170
      -0.123  0.029 -0.316  0.409 -0.847
       0.857  0.012  0.220 -0.304 -0.353
      -0.378  0.058 -0.182 -0.858 -0.290
     occupation matrix ns (before diag.):
       0.516  0.303 -0.009 -0.147  0.025
       0.303  0.591  0.021 -0.136  0.086
      -0.009  0.021  0.979  0.087 -0.034
      -0.147 -0.136  0.087  0.438  0.243
       0.025  0.086 -0.034  0.243  0.873
     SPIN  2
     eigenvalues:
       0.050  0.054  0.072  0.160  0.200
     eigenvectors (columns):
       0.001 -0.242 -0.545 -0.509  0.620
      -0.140 -0.201 -0.677 -0.026 -0.694
      -0.969 -0.151  0.114  0.099  0.124
      -0.165  0.469  0.213 -0.793 -0.280
      -0.120  0.811 -0.432  0.319  0.199
     occupation matrix ns (before diag.):
       0.143 -0.055  0.005  0.015  0.005
      -0.055  0.132 -0.015  0.028 -0.016
       0.005 -0.015  0.054 -0.014  0.006
       0.015  0.028 -0.014  0.133 -0.037
       0.005 -0.016  0.006 -0.037  0.074
     ------------------------ ATOM    3 ------------------------
     Tr[ns(  3)] (up, down, total) =   3.39738  0.53602  3.93340
     Atomic magnetic moment for atom   3 =   2.86136
     SPIN  1
     eigenvalues:
       0.242  0.245  0.928  0.981  1.002
     eigenvectors (columns):
      -0.230  0.745  0.589  0.002  0.214
       0.234  0.664 -0.687  0.060 -0.170
       0.123  0.029  0.316  0.409 -0.847
      -0.857  0.012 -0.220 -0.304 -0.353
      -0.378 -0.058 -0.182  0.858  0.290
     occupation matrix ns (before diag.):
       0.516 -0.303 -0.009 -0.147 -0.025
      -0.303  0.591 -0.021  0.136  0.086
      -0.009 -0.021  0.979  0.087  0.034
      -0.147  0.136  0.087  0.438 -0.243
      -0.025  0.086  0.034 -0.243  0.873
     SPIN  2
     eigenvalues:
       0.050  0.054  0.072  0.160  0.200
     eigenvectors (columns):
       0.001  0.242 -0.545 -0.509 -0.620
       0.140 -0.201  0.677  0.026 -0.694
      -0.969  0.151  0.114  0.099 -0.124
      -0.165 -0.469  0.213 -0.793  0.280
       0.120  0.811  0.432 -0.319  0.199
     occupation matrix ns (before diag.):
       0.143  0.055  0.005  0.015 -0.005
       0.055  0.132  0.015 -0.028 -0.016
       0.005  0.015  0.054 -0.014 -0.006
       0.015 -0.028 -0.014  0.133  0.037
      -0.005 -0.016 -0.006  0.037  0.074
     ------------------------ ATOM    4 ------------------------
     Tr[ns(  4)] (up, down, total) =   3.39738  0.53602  3.93340
     Atomic magnetic moment for atom   4 =   2.86136
     SPIN  1
     eigenvalues:
       0.242  0.245  0.928  0.981  1.002
     eigenvectors (columns):
       0.230  0.745 -0.589  0.002  0.214
       0.234 -0.664 -0.687 -0.060  0.170
      -0.123  0.029 -0.316  0.409 -0.847
       0.857  0.012  0.220 -0.304 -0.353
      -0.378  0.058 -0.182 -0.858 -0.290
     occupation matrix ns (before diag.):
       0.516  0.303 -0.009 -0.147  0.025
       0.303  0.591  0.021 -0.136  0.086
      -0.009  0.021  0.979  0.087 -0.034
      -0.147 -0.136  0.087  0.438  0.243
       0.025  0.086 -0.034  0.243  0.873
     SPIN  2
     eigenvalues:
       0.050  0.054  0.072  0.160  0.200
     eigenvectors (columns):
       0.001 -0.242 -0.545 -0.509  0.620
      -0.140 -0.201 -0.677 -0.026 -0.694
      -0.969 -0.151  0.114  0.099  0.124
      -0.165  0.469  0.213 -0.793 -0.280
      -0.120  0.811 -0.432  0.319  0.199
     occupation matrix ns (before diag.):
       0.143 -0.055  0.005  0.015  0.005
      -0.055  0.132 -0.015  0.028 -0.016
       0.005 -0.015  0.054 -0.014  0.006
       0.015  0.028 -0.014  0.133 -0.037
       0.005 -0.016  0.006 -0.037  0.074

     Number of occupied Hubbard levels =   15.7336

     negative rho (up, down):  0.000E+00 1.198E-02

     HUBBARD ENERGY =    0.5889  (Ry)

     total cpu time spent up to now is     1749.3 secs

     total energy              =   -2679.46095249 Ry
     estimated scf accuracy    <      12.82596405 Ry

     total magnetization       =    17.70 Bohr mag/cell
     absolute magnetization    =    22.04 Bohr mag/cell
[tb_dev] Currently allocated     0.00E+00 Mbytes, locked:    0 /   0
[tb_pin] Currently allocated     0.00E+00 Mbytes, locked:    0 /   0

     iteration #  6     ecut=    50.00 Ry     beta= 0.70
     CG style diagonalization

---- Real-time Memory Report at c_bands before calling an iterative solver
         12861 MiB given to the printing process from OS
             0 MiB allocation reported by mallinfo(arena+hblkhd)
        418440 MiB available memory on the node where the printing process lives
     GPU memory used/free/total (MiB): 6006 / 58938 / 64944
------------------
     ethr =  2.85E-03,  avg # of iterations =  3.0

     =================== HUBBARD OCCUPATIONS ===================
     ------------------------ ATOM    1 ------------------------
     Tr[ns(  1)] (up, down, total) =   3.43931  0.56337  4.00268
     Atomic magnetic moment for atom   1 =   2.87594
     SPIN  1
     eigenvalues:
       0.272  0.288  0.876  0.986  1.018
     eigenvectors (columns):
      -0.614  0.488 -0.495  0.215  0.307
      -0.707  0.003  0.602 -0.163 -0.333
      -0.073 -0.104  0.094 -0.719  0.676
       0.293  0.804  0.061 -0.419 -0.299
       0.180  0.325  0.616  0.484  0.498
     occupation matrix ns (before diag.):
       0.527 -0.281  0.015 -0.145  0.007
      -0.281  0.593 -0.050  0.145  0.044
       0.015 -0.050  0.988  0.067  0.037
      -0.145  0.145  0.067  0.476 -0.229
       0.007  0.044  0.037 -0.229  0.855
     SPIN  2
     eigenvalues:
       0.053  0.056  0.074  0.177  0.203
     eigenvectors (columns):
      -0.029 -0.320 -0.497 -0.583 -0.557
      -0.113  0.286  0.653 -0.048 -0.690
       0.982 -0.089  0.074  0.064 -0.132
       0.133  0.489  0.150 -0.762  0.375
      -0.061 -0.754  0.547 -0.272  0.234
     occupation matrix ns (before diag.):
       0.147  0.054  0.006  0.022 -0.005
       0.054  0.134  0.014 -0.032 -0.016
       0.006  0.014  0.057 -0.013 -0.006
       0.022 -0.032 -0.013  0.147  0.039
      -0.005 -0.016 -0.006  0.039  0.078
     ------------------------ ATOM    2 ------------------------
     Tr[ns(  2)] (up, down, total) =   3.43931  0.56337  4.00268
     Atomic magnetic moment for atom   2 =   2.87594
     SPIN  1
     eigenvalues:
       0.272  0.288  0.876  0.986  1.018
     eigenvectors (columns):
      -0.614 -0.488 -0.495  0.215 -0.307
       0.707  0.003 -0.602  0.163 -0.333
      -0.073  0.104  0.094 -0.719 -0.676
       0.293 -0.804  0.061 -0.419  0.299
      -0.180  0.325 -0.616 -0.484  0.498
     occupation matrix ns (before diag.):
       0.527  0.281  0.015 -0.145 -0.007
       0.281  0.593  0.050 -0.145  0.044
       0.015  0.050  0.988  0.067 -0.037
      -0.145 -0.145  0.067  0.476  0.229
      -0.007  0.044 -0.037  0.229  0.855
     SPIN  2
     eigenvalues:
       0.053  0.056  0.074  0.177  0.203
     eigenvectors (columns):
      -0.029  0.320 -0.497 -0.583  0.557
       0.113  0.286 -0.653  0.048 -0.690
       0.982  0.089  0.074  0.064  0.132
       0.133 -0.489  0.150 -0.762 -0.375
       0.061 -0.754 -0.547  0.272  0.234
     occupation matrix ns (before diag.):
       0.147 -0.054  0.006  0.022  0.005
      -0.054  0.134 -0.014  0.032 -0.016
       0.006 -0.014  0.057 -0.013  0.006
       0.022  0.032 -0.013  0.147 -0.039
       0.005 -0.016  0.006 -0.039  0.078
     ------------------------ ATOM    3 ------------------------
     Tr[ns(  3)] (up, down, total) =   3.43931  0.56337  4.00268
     Atomic magnetic moment for atom   3 =   2.87594
     SPIN  1
     eigenvalues:
       0.272  0.288  0.876  0.986  1.018
     eigenvectors (columns):
      -0.614  0.488 -0.495  0.215  0.307
      -0.707  0.003  0.602 -0.163 -0.333
      -0.073 -0.104  0.094 -0.719  0.676
       0.293  0.804  0.061 -0.419 -0.299
       0.180  0.325  0.616  0.484  0.498
     occupation matrix ns (before diag.):
       0.527 -0.281  0.015 -0.145  0.007
      -0.281  0.593 -0.050  0.145  0.044
       0.015 -0.050  0.988  0.067  0.037
      -0.145  0.145  0.067  0.476 -0.229
       0.007  0.044  0.037 -0.229  0.855
     SPIN  2
     eigenvalues:
       0.053  0.056  0.074  0.177  0.203
     eigenvectors (columns):
      -0.029 -0.320 -0.497 -0.583 -0.557
      -0.113  0.286  0.653 -0.048 -0.690
       0.982 -0.089  0.074  0.064 -0.132
       0.133  0.489  0.150 -0.762  0.375
      -0.061 -0.754  0.547 -0.272  0.234
     occupation matrix ns (before diag.):
       0.147  0.054  0.006  0.022 -0.005
       0.054  0.134  0.014 -0.032 -0.016
       0.006  0.014  0.057 -0.013 -0.006
       0.022 -0.032 -0.013  0.147  0.039
      -0.005 -0.016 -0.006  0.039  0.078
     ------------------------ ATOM    4 ------------------------
     Tr[ns(  4)] (up, down, total) =   3.43931  0.56337  4.00268
     Atomic magnetic moment for atom   4 =   2.87594
     SPIN  1
     eigenvalues:
       0.272  0.288  0.876  0.986  1.018
     eigenvectors (columns):
      -0.614 -0.488 -0.495  0.215 -0.307
       0.707  0.003 -0.602  0.163 -0.333
      -0.073  0.104  0.094 -0.719 -0.676
       0.293 -0.804  0.061 -0.419  0.299
      -0.180  0.325 -0.616 -0.484  0.498
     occupation matrix ns (before diag.):
       0.527  0.281  0.015 -0.145 -0.007
       0.281  0.593  0.050 -0.145  0.044
       0.015  0.050  0.988  0.067 -0.037
      -0.145 -0.145  0.067  0.476  0.229
      -0.007  0.044 -0.037  0.229  0.855
     SPIN  2
     eigenvalues:
       0.053  0.056  0.074  0.177  0.203
     eigenvectors (columns):
      -0.029  0.320 -0.497 -0.583  0.557
       0.113  0.286 -0.653  0.048 -0.690
       0.982  0.089  0.074  0.064  0.132
       0.133 -0.489  0.150 -0.762 -0.375
       0.061 -0.754 -0.547  0.272  0.234
     occupation matrix ns (before diag.):
       0.147 -0.054  0.006  0.022  0.005
      -0.054  0.134 -0.014  0.032 -0.016
       0.006 -0.014  0.057 -0.013  0.006
       0.022  0.032 -0.013  0.147 -0.039
       0.005 -0.016  0.006 -0.039  0.078

     Number of occupied Hubbard levels =   16.0107

     negative rho (up, down):  0.000E+00 1.389E-02

     HUBBARD ENERGY =    0.5366  (Ry)

     total cpu time spent up to now is     2000.7 secs

     total energy              =   -2680.15697784 Ry
     estimated scf accuracy    <       2.25070788 Ry

     total magnetization       =    25.90 Bohr mag/cell
     absolute magnetization    =    28.45 Bohr mag/cell
[tb_dev] Currently allocated     0.00E+00 Mbytes, locked:    0 /   0
[tb_pin] Currently allocated     0.00E+00 Mbytes, locked:    0 /   0

     iteration #  7     ecut=    50.00 Ry     beta= 0.70
     CG style diagonalization

---- Real-time Memory Report at c_bands before calling an iterative solver
         12888 MiB given to the printing process from OS
             0 MiB allocation reported by mallinfo(arena+hblkhd)
        418385 MiB available memory on the node where the printing process lives
     GPU memory used/free/total (MiB): 6006 / 58938 / 64944
------------------
     c_bands:  1 eigenvalues not converged
     c_bands:  1 eigenvalues not converged
     c_bands:  1 eigenvalues not converged
     c_bands:  3 eigenvalues not converged
     c_bands:  1 eigenvalues not converged
     c_bands:  1 eigenvalues not converged
     c_bands:  1 eigenvalues not converged
     c_bands:  2 eigenvalues not converged
     c_bands:  1 eigenvalues not converged
     c_bands:  1 eigenvalues not converged
     c_bands:  1 eigenvalues not converged
     c_bands:  2 eigenvalues not converged
     c_bands:  1 eigenvalues not converged
     c_bands:  2 eigenvalues not converged
     c_bands:  1 eigenvalues not converged
     c_bands:  1 eigenvalues not converged
     c_bands:  1 eigenvalues not converged
     c_bands:  1 eigenvalues not converged
     ethr =  5.92E-04,  avg # of iterations =  3.2

     =================== HUBBARD OCCUPATIONS ===================
     ------------------------ ATOM    1 ------------------------
     Tr[ns(  1)] (up, down, total) =   3.61175  0.62238  4.23413
     Atomic magnetic moment for atom   1 =   2.98936
     SPIN  1
     eigenvalues:
       0.307  0.336  0.974  0.991  1.003
     eigenvectors (columns):
      -0.608  0.488 -0.451 -0.205 -0.383
      -0.711  0.008  0.525  0.294  0.365
      -0.076 -0.098  0.395 -0.910  0.019
       0.295  0.804  0.074 -0.069  0.506
       0.178  0.325  0.600  0.196 -0.681
     occupation matrix ns (before diag.):
       0.580 -0.296  0.003 -0.136 -0.022
      -0.296  0.642 -0.040  0.141  0.077
       0.003 -0.040  0.979  0.067  0.026
      -0.136  0.141  0.067  0.511 -0.212
      -0.022  0.077  0.026 -0.212  0.900
     SPIN  2
     eigenvalues:
       0.057  0.065  0.080  0.199  0.221
     eigenvectors (columns):
      -0.184  0.304  0.497 -0.554 -0.566
       0.302 -0.159 -0.632 -0.044 -0.695
      -0.834 -0.518 -0.103  0.057 -0.153
       0.200 -0.486 -0.103 -0.773  0.340
      -0.375  0.615 -0.577 -0.301  0.241
     occupation matrix ns (before diag.):
       0.160  0.060  0.007  0.027 -0.004
       0.060  0.146  0.019 -0.032 -0.018
       0.007  0.019  0.064 -0.012 -0.010
       0.027 -0.032 -0.012  0.163  0.045
      -0.004 -0.018 -0.010  0.045  0.090
     ------------------------ ATOM    2 ------------------------
     Tr[ns(  2)] (up, down, total) =   3.61175  0.62238  4.23413
     Atomic magnetic moment for atom   2 =   2.98936
     SPIN  1
     eigenvalues:
       0.307  0.336  0.974  0.991  1.003
     eigenvectors (columns):
      -0.608 -0.488 -0.451  0.205 -0.383
       0.711  0.008 -0.525  0.294 -0.365
      -0.076  0.098  0.395  0.910  0.019
       0.295 -0.804  0.074  0.069  0.506
      -0.178  0.325 -0.600  0.196  0.681
     occupation matrix ns (before diag.):
       0.580  0.296  0.003 -0.136  0.022
       0.296  0.642  0.040 -0.141  0.077
       0.003  0.040  0.979  0.067 -0.026
      -0.136 -0.141  0.067  0.511  0.212
       0.022  0.077 -0.026  0.212  0.900
     SPIN  2
     eigenvalues:
       0.057  0.065  0.080  0.199  0.221
     eigenvectors (columns):
       0.184  0.304  0.497 -0.554  0.566
       0.302  0.159  0.632  0.044 -0.695
       0.834 -0.518 -0.103  0.057  0.153
      -0.200 -0.486 -0.103 -0.773 -0.340
      -0.375 -0.615  0.577  0.301  0.241
     occupation matrix ns (before diag.):
       0.160 -0.060  0.007  0.027  0.004
      -0.060  0.146 -0.019  0.032 -0.018
       0.007 -0.019  0.064 -0.012  0.010
       0.027  0.032 -0.012  0.163 -0.045
       0.004 -0.018  0.010 -0.045  0.090
     ------------------------ ATOM    3 ------------------------
     Tr[ns(  3)] (up, down, total) =   3.61175  0.62238  4.23413
     Atomic magnetic moment for atom   3 =   2.98936
     SPIN  1
     eigenvalues:
       0.307  0.336  0.974  0.991  1.003
     eigenvectors (columns):
      -0.608  0.488 -0.451 -0.205 -0.383
      -0.711  0.008  0.525  0.294  0.365
      -0.076 -0.098  0.395 -0.910  0.019
       0.295  0.804  0.074 -0.069  0.506
       0.178  0.325  0.600  0.196 -0.681
     occupation matrix ns (before diag.):
       0.580 -0.296  0.003 -0.136 -0.022
      -0.296  0.642 -0.040  0.141  0.077
       0.003 -0.040  0.979  0.067  0.026
      -0.136  0.141  0.067  0.511 -0.212
      -0.022  0.077  0.026 -0.212  0.900
     SPIN  2
     eigenvalues:
       0.057  0.065  0.080  0.199  0.221
     eigenvectors (columns):
      -0.184  0.304  0.497 -0.554 -0.566
       0.302 -0.159 -0.632 -0.044 -0.695
      -0.834 -0.518 -0.103  0.057 -0.153
       0.200 -0.486 -0.103 -0.773  0.340
      -0.375  0.615 -0.577 -0.301  0.241
     occupation matrix ns (before diag.):
       0.160  0.060  0.007  0.027 -0.004
       0.060  0.146  0.019 -0.032 -0.018
       0.007  0.019  0.064 -0.012 -0.010
       0.027 -0.032 -0.012  0.163  0.045
      -0.004 -0.018 -0.010  0.045  0.090
     ------------------------ ATOM    4 ------------------------
     Tr[ns(  4)] (up, down, total) =   3.61175  0.62238  4.23413
     Atomic magnetic moment for atom   4 =   2.98936
     SPIN  1
     eigenvalues:
       0.307  0.336  0.974  0.991  1.003
     eigenvectors (columns):
      -0.608 -0.488 -0.451  0.205 -0.383
       0.711  0.008 -0.525  0.294 -0.365
      -0.076  0.098  0.395  0.910  0.019
       0.295 -0.804  0.074  0.069  0.506
      -0.178  0.325 -0.600  0.196  0.681
     occupation matrix ns (before diag.):
       0.580  0.296  0.003 -0.136  0.022
       0.296  0.642  0.040 -0.141  0.077
       0.003  0.040  0.979  0.067 -0.026
      -0.136 -0.141  0.067  0.511  0.212
       0.022  0.077 -0.026  0.212  0.900
     SPIN  2
     eigenvalues:
       0.057  0.065  0.080  0.199  0.221
     eigenvectors (columns):
       0.184  0.304  0.497 -0.554  0.566
       0.302  0.159  0.632  0.044 -0.695
       0.834 -0.518 -0.103  0.057  0.153
      -0.200 -0.486 -0.103 -0.773 -0.340
      -0.375 -0.615  0.577  0.301  0.241
     occupation matrix ns (before diag.):
       0.160 -0.060  0.007  0.027  0.004
      -0.060  0.146 -0.019  0.032 -0.018
       0.007 -0.019  0.064 -0.012  0.010
       0.027  0.032 -0.012  0.163 -0.045
       0.004 -0.018  0.010 -0.045  0.090

     Number of occupied Hubbard levels =   16.9365

     negative rho (up, down):  0.000E+00 1.566E-02

     HUBBARD ENERGY =    0.4831  (Ry)

     total cpu time spent up to now is     2272.3 secs

     total energy              =   -2680.55788311 Ry
     estimated scf accuracy    <       1.80096629 Ry

     total magnetization       =    27.78 Bohr mag/cell
     absolute magnetization    =    29.85 Bohr mag/cell
[tb_dev] Currently allocated     0.00E+00 Mbytes, locked:    0 /   0
[tb_pin] Currently allocated     0.00E+00 Mbytes, locked:    0 /   0

     iteration #  8     ecut=    50.00 Ry     beta= 0.70
     CG style diagonalization

---- Real-time Memory Report at c_bands before calling an iterative solver
         12912 MiB given to the printing process from OS
             0 MiB allocation reported by mallinfo(arena+hblkhd)
        418316 MiB available memory on the node where the printing process lives
     GPU memory used/free/total (MiB): 6006 / 58938 / 64944
------------------
     c_bands:  1 eigenvalues not converged
     c_bands:  1 eigenvalues not converged
     ethr =  4.74E-04,  avg # of iterations =  3.0

     =================== HUBBARD OCCUPATIONS ===================
     ------------------------ ATOM    1 ------------------------
     Tr[ns(  1)] (up, down, total) =   3.50894  0.57060  4.07954
     Atomic magnetic moment for atom   1 =   2.93834
     SPIN  1
     eigenvalues:
       0.290  0.308  0.925  0.982  1.005
     eigenvectors (columns):
       0.451 -0.632 -0.521  0.245  0.255
      -0.040 -0.717  0.572 -0.334 -0.216
      -0.100 -0.078  0.394  0.907 -0.082
       0.818  0.242  0.169 -0.008 -0.494
       0.341  0.150  0.466 -0.080  0.798
     occupation matrix ns (before diag.):
       0.558 -0.277  0.009 -0.150 -0.024
      -0.277  0.617 -0.053  0.136  0.063
       0.009 -0.053  0.962  0.066  0.020
      -0.150  0.136  0.066  0.484 -0.231
      -0.024  0.063  0.020 -0.231  0.888
     SPIN  2
     eigenvalues:
       0.054  0.057  0.070  0.180  0.209
     eigenvectors (columns):
      -0.142  0.332 -0.489 -0.522 -0.598
       0.303 -0.227  0.611 -0.004 -0.695
      -0.907 -0.359  0.140  0.065 -0.156
       0.111 -0.518  0.090 -0.788  0.300
      -0.230  0.664  0.599 -0.320  0.212
     occupation matrix ns (before diag.):
       0.148  0.060  0.009  0.023 -0.003
       0.060  0.135  0.018 -0.031 -0.017
       0.009  0.018  0.059 -0.013 -0.007
       0.023 -0.031 -0.013  0.148  0.041
      -0.003 -0.017 -0.007  0.041  0.081
     ------------------------ ATOM    2 ------------------------
     Tr[ns(  2)] (up, down, total) =   3.50894  0.57060  4.07954
     Atomic magnetic moment for atom   2 =   2.93834
     SPIN  1
     eigenvalues:
       0.290  0.308  0.925  0.982  1.005
     eigenvectors (columns):
      -0.451 -0.632 -0.521  0.245 -0.255
      -0.040  0.717 -0.572  0.334 -0.216
       0.100 -0.078  0.394  0.907  0.082
      -0.818  0.242  0.169 -0.008  0.494
       0.341 -0.150 -0.466  0.080  0.798
     occupation matrix ns (before diag.):
       0.558  0.277  0.009 -0.150  0.024
       0.277  0.617  0.053 -0.136  0.063
       0.009  0.053  0.962  0.066 -0.020
      -0.150 -0.136  0.066  0.484  0.231
       0.024  0.063 -0.020  0.231  0.888
     SPIN  2
     eigenvalues:
       0.054  0.057  0.070  0.180  0.209
     eigenvectors (columns):
      -0.142 -0.332 -0.489 -0.522  0.598
      -0.303 -0.227 -0.611  0.004 -0.695
      -0.907  0.359  0.140  0.065  0.156
       0.111  0.518  0.090 -0.788 -0.300
       0.230  0.664 -0.599  0.320  0.212
     occupation matrix ns (before diag.):
       0.148 -0.060  0.009  0.023  0.003
      -0.060  0.135 -0.018  0.031 -0.017
       0.009 -0.018  0.059 -0.013  0.007
       0.023  0.031 -0.013  0.148 -0.041
       0.003 -0.017  0.007 -0.041  0.081
     ------------------------ ATOM    3 ------------------------
[...]
       0.011 -0.053  0.973  0.064  0.021
      -0.153  0.135  0.064  0.484 -0.241
      -0.011  0.038  0.021 -0.241  0.860
     SPIN  2
     eigenvalues:
       0.045  0.050  0.064  0.171  0.190
     eigenvectors (columns):
       0.199 -0.290 -0.499 -0.523 -0.595
      -0.318  0.171  0.619 -0.011 -0.698
       0.842  0.497  0.143  0.064 -0.137
      -0.193  0.483  0.102 -0.789  0.309
       0.336 -0.637  0.581 -0.314  0.212
     occupation matrix ns (before diag.):
       0.136  0.055  0.006  0.023 -0.002
       0.055  0.123  0.016 -0.029 -0.015
       0.006  0.016  0.050 -0.011 -0.007
       0.023 -0.029 -0.011  0.139  0.040
      -0.002 -0.015 -0.007  0.040  0.073
     ------------------------ ATOM    4 ------------------------
     Tr[ns(  4)] (up, down, total) =   3.45472  0.52061  3.97533
     Atomic magnetic moment for atom   4 =   2.93411
     SPIN  1
     eigenvalues:
       0.281  0.303  0.875  0.988  1.008
     eigenvectors (columns):
       0.522 -0.566 -0.538 -0.059 -0.339
      -0.056  0.721 -0.592 -0.135 -0.329
      -0.086 -0.086  0.193 -0.965 -0.127
       0.778  0.341  0.100 -0.146  0.497
      -0.334 -0.188 -0.560 -0.160  0.717
     occupation matrix ns (before diag.):
       0.546  0.267  0.011 -0.153  0.011
       0.267  0.592  0.053 -0.135  0.038
       0.011  0.053  0.973  0.064 -0.021
      -0.153 -0.135  0.064  0.484  0.241
       0.011  0.038 -0.021  0.241  0.860
     SPIN  2
     eigenvalues:
       0.045  0.050  0.064  0.171  0.190
     eigenvectors (columns):
       0.199  0.290 -0.499 -0.523  0.595
       0.318  0.171 -0.619  0.011 -0.698
       0.842 -0.497  0.143  0.064  0.137
      -0.193 -0.483  0.102 -0.789 -0.309
      -0.336 -0.637 -0.581  0.314  0.212
     occupation matrix ns (before diag.):
       0.136 -0.055  0.006  0.023  0.002
      -0.055  0.123 -0.016  0.029 -0.015
       0.006 -0.016  0.050 -0.011  0.007
       0.023  0.029 -0.011  0.139 -0.040
       0.002 -0.015  0.007 -0.040  0.073

     Number of occupied Hubbard levels =   15.9013

     negative rho (up, down):  0.000E+00 1.698E-02

     HUBBARD ENERGY =    0.4262  (Ry)

     total cpu time spent up to now is    74773.5 secs

     total energy              =   -2680.80939845 Ry
     estimated scf accuracy    <       0.00217072 Ry

     total magnetization       =    25.35 Bohr mag/cell
     absolute magnetization    =    26.57 Bohr mag/cell
[tb_dev] Currently allocated     0.00E+00 Mbytes, locked:    0 /   0
[tb_pin] Currently allocated     0.00E+00 Mbytes, locked:    0 /   0

     iteration #245     ecut=    50.00 Ry     beta= 0.70
     CG style diagonalization

---- Real-time Memory Report at c_bands before calling an iterative solver
         12962 MiB given to the printing process from OS
             0 MiB allocation reported by mallinfo(arena+hblkhd)
        298721 MiB available memory on the node where the printing process lives
     GPU memory used/free/total (MiB): 6006 / 58938 / 64944
------------------
     ethr =  1.35E-07,  avg # of iterations =  3.4

     =================== HUBBARD OCCUPATIONS ===================
     ------------------------ ATOM    1 ------------------------
     Tr[ns(  1)] (up, down, total) =   3.47140  0.52445  3.99586
     Atomic magnetic moment for atom   1 =   2.94695
     SPIN  1
     eigenvalues:
       0.283  0.305  0.887  0.989  1.008
     eigenvectors (columns):
       0.527  0.563 -0.535 -0.063  0.340
       0.061  0.720  0.591  0.139 -0.329
      -0.086  0.087  0.196 -0.966  0.118
       0.775 -0.347  0.098 -0.141 -0.499
       0.332 -0.192  0.562  0.155  0.717
     occupation matrix ns (before diag.):
       0.549 -0.270  0.010 -0.153 -0.014
      -0.270  0.598 -0.052  0.135  0.042
       0.010 -0.052  0.975  0.065  0.022
      -0.153  0.135  0.065  0.486 -0.240
      -0.014  0.042  0.022 -0.240  0.863
     SPIN  2
     eigenvalues:
       0.046  0.051  0.065  0.172  0.192
     eigenvectors (columns):
      -0.198  0.292 -0.497 -0.526 -0.593
       0.320 -0.174  0.617 -0.015 -0.697
      -0.844 -0.493  0.145  0.063 -0.138
       0.191 -0.485  0.099 -0.788  0.313
      -0.330  0.638  0.584 -0.314  0.214
     occupation matrix ns (before diag.):
       0.137  0.055  0.006  0.023 -0.002
       0.055  0.124  0.016 -0.029 -0.015
       0.006  0.016  0.051 -0.011 -0.007
       0.023 -0.029 -0.011  0.139  0.041
      -0.002 -0.015 -0.007  0.041  0.073
     ------------------------ ATOM    2 ------------------------
     Tr[ns(  2)] (up, down, total) =   3.47140  0.52445  3.99586
     Atomic magnetic moment for atom   2 =   2.94695
     SPIN  1
     eigenvalues:
       0.283  0.305  0.887  0.989  1.008
     eigenvectors (columns):
      -0.527  0.563 -0.535 -0.063 -0.340
       0.061 -0.720 -0.591 -0.139 -0.329
       0.086  0.087  0.196 -0.966 -0.118
      -0.775 -0.347  0.098 -0.141  0.499
       0.332  0.192 -0.562 -0.155  0.717
     occupation matrix ns (before diag.):
       0.549  0.270  0.010 -0.153  0.014
       0.270  0.598  0.052 -0.135  0.042
       0.010  0.052  0.975  0.065 -0.022
      -0.153 -0.135  0.065  0.486  0.240
       0.014  0.042 -0.022  0.240  0.863
     SPIN  2
     eigenvalues:
       0.046  0.051  0.065  0.172  0.192
     eigenvectors (columns):
      -0.198 -0.292 -0.497 -0.526  0.593
      -0.320 -0.174 -0.617  0.015 -0.697
      -0.844  0.493  0.145  0.063  0.138
       0.191  0.485  0.099 -0.788 -0.313
       0.330  0.638 -0.584  0.314  0.214
     occupation matrix ns (before diag.):
       0.137 -0.055  0.006  0.023  0.002
      -0.055  0.124 -0.016  0.029 -0.015
       0.006 -0.016  0.051 -0.011  0.007
       0.023  0.029 -0.011  0.139 -0.041
       0.002 -0.015  0.007 -0.041  0.073
     ------------------------ ATOM    3 ------------------------
     Tr[ns(  3)] (up, down, total) =   3.47140  0.52445  3.99586
     Atomic magnetic moment for atom   3 =   2.94695
     SPIN  1
     eigenvalues:
       0.283  0.305  0.887  0.989  1.008
     eigenvectors (columns):
       0.527  0.563 -0.535 -0.063  0.340
       0.061  0.720  0.591  0.139 -0.329
      -0.086  0.087  0.196 -0.966  0.118
       0.775 -0.347  0.098 -0.141 -0.499
       0.332 -0.192  0.562  0.155  0.717
     occupation matrix ns (before diag.):
       0.549 -0.270  0.010 -0.153 -0.014
      -0.270  0.598 -0.052  0.135  0.042
       0.010 -0.052  0.975  0.065  0.022
      -0.153  0.135  0.065  0.486 -0.240
      -0.014  0.042  0.022 -0.240  0.863
     SPIN  2
     eigenvalues:
       0.046  0.051  0.065  0.172  0.192
     eigenvectors (columns):
      -0.198  0.292 -0.497 -0.526 -0.593
       0.320 -0.174  0.617 -0.015 -0.697
      -0.844 -0.493  0.145  0.063 -0.138
       0.191 -0.485  0.099 -0.788  0.313
      -0.330  0.638  0.584 -0.314  0.214
     occupation matrix ns (before diag.):
       0.137  0.055  0.006  0.023 -0.002
       0.055  0.124  0.016 -0.029 -0.015
       0.006  0.016  0.051 -0.011 -0.007
       0.023 -0.029 -0.011  0.139  0.041
      -0.002 -0.015 -0.007  0.041  0.073
     ------------------------ ATOM    4 ------------------------
     Tr[ns(  4)] (up, down, total) =   3.47140  0.52445  3.99586
     Atomic magnetic moment for atom   4 =   2.94695
     SPIN  1
     eigenvalues:
       0.283  0.305  0.887  0.989  1.008
     eigenvectors (columns):
      -0.527  0.563 -0.535 -0.063 -0.340
       0.061 -0.720 -0.591 -0.139 -0.329
       0.086  0.087  0.196 -0.966 -0.118
      -0.775 -0.347  0.098 -0.141  0.499
       0.332  0.192 -0.562 -0.155  0.717
     occupation matrix ns (before diag.):
       0.549  0.270  0.010 -0.153  0.014
       0.270  0.598  0.052 -0.135  0.042
       0.010  0.052  0.975  0.065 -0.022
      -0.153 -0.135  0.065  0.486  0.240
       0.014  0.042 -0.022  0.240  0.863
     SPIN  2
     eigenvalues:
       0.046  0.051  0.065  0.172  0.192
     eigenvectors (columns):
      -0.198 -0.292 -0.497 -0.526  0.593
      -0.320 -0.174 -0.617  0.015 -0.697
      -0.844  0.493  0.145  0.063  0.138
       0.191  0.485  0.099 -0.788 -0.313
       0.330  0.638 -0.584  0.314  0.214
     occupation matrix ns (before diag.):
       0.137 -0.055  0.006  0.023  0.002
      -0.055  0.124 -0.016  0.029 -0.015
       0.006 -0.016  0.051 -0.011  0.007
       0.023  0.029 -0.011  0.139 -0.041
       0.002 -0.015  0.007 -0.041  0.073

     Number of occupied Hubbard levels =   15.9834

     negative rho (up, down):  0.000E+00 1.697E-02

     HUBBARD ENERGY =    0.4257  (Ry)

     total cpu time spent up to now is    75081.3 secs

     total energy              =   -2680.80928202 Ry
     estimated scf accuracy    <       0.00261027 Ry

     total magnetization       =    25.65 Bohr mag/cell
     absolute magnetization    =    26.86 Bohr mag/cell
[tb_dev] Currently allocated     0.00E+00 Mbytes, locked:    0 /   0
[tb_pin] Currently allocated     0.00E+00 Mbytes, locked:    0 /   0

     iteration #246     ecut=    50.00 Ry     beta= 0.70
     CG style diagonalization

---- Real-time Memory Report at c_bands before calling an iterative solver
         12962 MiB given to the printing process from OS
             0 MiB allocation reported by mallinfo(arena+hblkhd)
        298069 MiB available memory on the node where the printing process lives
     GPU memory used/free/total (MiB): 6006 / 58938 / 64944
------------------
     ethr =  1.35E-07,  avg # of iterations =  3.2

     =================== HUBBARD OCCUPATIONS ===================
     ------------------------ ATOM    1 ------------------------
     Tr[ns(  1)] (up, down, total) =   3.46357  0.52209  3.98566
     Atomic magnetic moment for atom   1 =   2.94148
     SPIN  1
     eigenvalues:
       0.281  0.303  0.882  0.989  1.008
     eigenvectors (columns):
       0.524  0.565 -0.534 -0.060  0.342
       0.059  0.720  0.590  0.136 -0.333
      -0.086  0.086  0.200 -0.963  0.133
       0.777 -0.344  0.097 -0.149 -0.496
       0.333 -0.190  0.563  0.169  0.713
     occupation matrix ns (before diag.):
       0.547 -0.269  0.011 -0.153 -0.013
      -0.269  0.596 -0.053  0.135  0.040
       0.011 -0.053  0.975  0.064  0.021
      -0.153  0.135  0.064  0.484 -0.241
      -0.013  0.040  0.021 -0.241  0.862
     SPIN  2
     eigenvalues:
       0.045  0.050  0.065  0.171  0.191
     eigenvectors (columns):
      -0.197  0.292 -0.498 -0.524 -0.594
       0.319 -0.173  0.618 -0.012 -0.697
      -0.842 -0.498  0.141  0.062 -0.138
       0.193 -0.484  0.099 -0.789  0.310
      -0.335  0.634  0.584 -0.315  0.212
     occupation matrix ns (before diag.):
       0.136  0.055  0.006  0.023 -0.002
       0.055  0.124  0.016 -0.029 -0.015
       0.006  0.016  0.050 -0.011 -0.007
       0.023 -0.029 -0.011  0.139  0.040
      -0.002 -0.015 -0.007  0.040  0.073
     ------------------------ ATOM    2 ------------------------
     Tr[ns(  2)] (up, down, total) =   3.46357  0.52209  3.98566
     Atomic magnetic moment for atom   2 =   2.94148
     SPIN  1
     eigenvalues:
       0.281  0.303  0.882  0.989  1.008
     eigenvectors (columns):
      -0.524  0.565 -0.534 -0.060 -0.342
       0.059 -0.720 -0.590 -0.136 -0.333
       0.086  0.086  0.200 -0.963 -0.133
      -0.777 -0.344  0.097 -0.149  0.496
       0.333  0.190 -0.563 -0.169  0.713
     occupation matrix ns (before diag.):
       0.547  0.269  0.011 -0.153  0.013
       0.269  0.596  0.053 -0.135  0.040
       0.011  0.053  0.975  0.064 -0.021
      -0.153 -0.135  0.064  0.484  0.241
       0.013  0.040 -0.021  0.241  0.862
     SPIN  2
     eigenvalues:
       0.045  0.050  0.065  0.171  0.191
     eigenvectors (columns):
      -0.197 -0.292 -0.498 -0.524  0.594
      -0.319 -0.173 -0.618  0.012 -0.697
      -0.842  0.498  0.141  0.062  0.138
       0.193  0.484  0.099 -0.789 -0.310
       0.335  0.634 -0.584  0.315  0.212
     occupation matrix ns (before diag.):
       0.136 -0.055  0.006  0.023  0.002
      -0.055  0.124 -0.016  0.029 -0.015
       0.006 -0.016  0.050 -0.011  0.007
       0.023  0.029 -0.011  0.139 -0.040
       0.002 -0.015  0.007 -0.040  0.073
     ------------------------ ATOM    3 ------------------------
     Tr[ns(  3)] (up, down, total) =   3.46357  0.52209  3.98566
     Atomic magnetic moment for atom   3 =   2.94148
     SPIN  1
     eigenvalues:
       0.281  0.303  0.882  0.989  1.008
     eigenvectors (columns):
       0.524  0.565 -0.534 -0.060  0.342
       0.059  0.720  0.590  0.136 -0.333
      -0.086  0.086  0.200 -0.963  0.133
       0.777 -0.344  0.097 -0.149 -0.496
       0.333 -0.190  0.563  0.169  0.713
     occupation matrix ns (before diag.):
       0.547 -0.269  0.011 -0.153 -0.013
      -0.269  0.596 -0.053  0.135  0.040
       0.011 -0.053  0.975  0.064  0.021
      -0.153  0.135  0.064  0.484 -0.241
      -0.013  0.040  0.021 -0.241  0.862
     SPIN  2
     eigenvalues:
       0.045  0.050  0.065  0.171  0.191
     eigenvectors (columns):
      -0.197  0.292 -0.498 -0.524 -0.594
       0.319 -0.173  0.618 -0.012 -0.697
      -0.842 -0.498  0.141  0.062 -0.138
       0.193 -0.484  0.099 -0.789  0.310
      -0.335  0.634  0.584 -0.315  0.212
     occupation matrix ns (before diag.):
       0.136  0.055  0.006  0.023 -0.002
       0.055  0.124  0.016 -0.029 -0.015
       0.006  0.016  0.050 -0.011 -0.007
       0.023 -0.029 -0.011  0.139  0.040
      -0.002 -0.015 -0.007  0.040  0.073
     ------------------------ ATOM    4 ------------------------
     Tr[ns(  4)] (up, down, total) =   3.46357  0.52209  3.98566
     Atomic magnetic moment for atom   4 =   2.94148
     SPIN  1
     eigenvalues:
       0.281  0.303  0.882  0.989  1.008
     eigenvectors (columns):
      -0.524  0.565 -0.534 -0.060 -0.342
       0.059 -0.720 -0.590 -0.136 -0.333
       0.086  0.086  0.200 -0.963 -0.133
      -0.777 -0.344  0.097 -0.149  0.496
       0.333  0.190 -0.563 -0.169  0.713
     occupation matrix ns (before diag.):
       0.547  0.269  0.011 -0.153  0.013
       0.269  0.596  0.053 -0.135  0.040
       0.011  0.053  0.975  0.064 -0.021
      -0.153 -0.135  0.064  0.484  0.241
       0.013  0.040 -0.021  0.241  0.862
     SPIN  2
     eigenvalues:
       0.045  0.050  0.065  0.171  0.191
     eigenvectors (columns):
      -0.197 -0.292 -0.498 -0.524  0.594
      -0.319 -0.173 -0.618  0.012 -0.697
      -0.842  0.498  0.141  0.062  0.138
       0.193  0.484  0.099 -0.789 -0.310
       0.335  0.634 -0.584  0.315  0.212
     occupation matrix ns (before diag.):
       0.136 -0.055  0.006  0.023  0.002
      -0.055  0.124 -0.016  0.029 -0.015
       0.006 -0.016  0.050 -0.011  0.007
       0.023  0.029 -0.011  0.139 -0.040
       0.002 -0.015  0.007 -0.040  0.073

     Number of occupied Hubbard levels =   15.9426

     negative rho (up, down):  0.000E+00 1.697E-02

     HUBBARD ENERGY =    0.4271  (Ry)

     total cpu time spent up to now is    75355.9 secs

     total energy              =   -2680.80952143 Ry
     estimated scf accuracy    <       0.00113374 Ry

     total magnetization       =    25.63 Bohr mag/cell
     absolute magnetization    =    26.83 Bohr mag/cell
[tb_dev] Currently allocated     0.00E+00 Mbytes, locked:    0 /   0
[tb_pin] Currently allocated     0.00E+00 Mbytes, locked:    0 /   0

     iteration #247     ecut=    50.00 Ry     beta= 0.70
     CG style diagonalization

---- Real-time Memory Report at c_bands before calling an iterative solver
         12962 MiB given to the printing process from OS
             0 MiB allocation reported by mallinfo(arena+hblkhd)
        301361 MiB available memory on the node where the printing process lives
     GPU memory used/free/total (MiB): 6006 / 58938 / 64944
------------------

     Maximum CPU time exceeded

     max_seconds     =   75600.00
     elapsed seconds =   75603.13
     Calculation stopped in k-point loop, point #    72
     Calculation stopped in scf loop at iteration #   246

     Writing config to output data dir ./out/aiida.save/ :
     XML data file, charge density
 
     init_run     :     14.43s CPU     17.70s WALL (       1 calls)
     electrons    :  74644.62s CPU  75585.73s WALL (       1 calls)

     Called by init_run:
     wfcinit      :     10.78s CPU     13.71s WALL (       1 calls)
     wfcinit:atom :      0.33s CPU      0.33s WALL (      88 calls)
     wfcinit:wfcr :      5.72s CPU      5.75s WALL (      88 calls)
     potinit      :      0.73s CPU      0.80s WALL (       1 calls)
     hinit0       :      2.41s CPU      2.46s WALL (       1 calls)

     Called by electrons:
     c_bands      :  72157.30s CPU  73075.60s WALL (     247 calls)
     sum_band     :   2285.43s CPU   2298.51s WALL (     246 calls)
     v_of_rho     :     10.40s CPU     10.55s WALL (     247 calls)
     v_h          :      3.97s CPU      4.03s WALL (     247 calls)
     v_xc         :      6.41s CPU      6.52s WALL (     247 calls)
     newd         :     12.62s CPU     28.63s WALL (     247 calls)
     PAW_pot      :    111.81s CPU    112.54s WALL (     247 calls)
     mix_rho      :     31.13s CPU     31.41s WALL (     246 calls)

     Called by c_bands:
     init_us_2    :     78.70s CPU     79.28s WALL (   43544 calls)
     ccgdiagg     :  69717.79s CPU  70607.13s WALL (   21721 calls)
     wfcrot       :   1196.02s CPU   1203.16s WALL (   21721 calls)
                                     1203.11s GPU  (   21721 calls)

     Called by sum_band:
     sum_band:wei :      3.85s CPU      3.87s WALL (     246 calls)
     sum_band:loo :   1111.09s CPU   1116.98s WALL (     246 calls)
     sum_band:buf :    536.41s CPU    539.54s WALL (   21648 calls)
     sum_band:ini :     39.38s CPU     39.63s WALL (   21648 calls)
     sum_band:cal :      1.18s CPU      1.19s WALL (   21648 calls)
     sum_band:bec :    120.57s CPU    121.13s WALL (   21648 calls)
     addusdens    :     26.59s CPU     26.80s WALL (     246 calls)
                                       26.79s GPU  (     246 calls)
     addusd:skk   :      0.52s CPU      0.53s WALL (     738 calls)
                                        0.52s GPU  (     738 calls)

     Called by *cgdiagg:
     h_psi        :  24567.93s CPU  25118.15s WALL (11865570 calls)
     s_psi        :  35326.34s CPU  35599.09s WALL (23709507 calls)

     Called by h_psi:
     h_psi:calbec :    154.34s CPU    158.07s WALL (11865570 calls)
     vloc_psi     :   4497.73s CPU   4701.08s WALL (11865570 calls)
                                     4621.05s GPU  (11865570 calls)
     add_vuspsi   :  15212.21s CPU  15648.82s WALL (11865570 calls)
     vhpsi        :   4317.30s CPU   4343.10s WALL (11865570 calls)
     hs_1psi      :  40138.36s CPU  43776.88s WALL (11843849 calls)
                                    43696.59s GPU  (11843849 calls)
     s_1psi       :  19135.19s CPU  22165.25s WALL (11843849 calls)
                                    22085.18s GPU  (11843849 calls)

     General routines
     calbec       :   1027.08s CPU   1038.74s WALL (35618373 calls)
     fft          :     18.20s CPU     19.03s WALL (    6173 calls)
                                        0.78s GPU  (    5679 calls)
     ffts         :      5.19s CPU      5.25s WALL (     986 calls)
                                        0.03s GPU  (     492 calls)
     fftw         :    254.83s CPU   2232.37s WALL (24664400 calls)
                                     2075.08s GPU  (24664400 calls)
     interpolate  :     26.64s CPU     26.82s WALL (     494 calls)
     davcio       :      0.02s CPU      7.36s WALL (     106 calls)
 
     Parallel routines

     Hubbard U routines
     new_ns       :   1124.58s CPU   1131.40s WALL (     246 calls)
     vhpsi        :   4317.30s CPU   4343.10s WALL (11865570 calls)

     PAW routines
     PAW_pot      :    111.81s CPU    112.54s WALL (     247 calls)
     PAW_symme    :      0.14s CPU      0.14s WALL (     493 calls)
 
     PWSCF        :     20h44m CPU     21h 0m WALL

 
   This run was terminated on:   6:31:27  16Oct2025            

=------------------------------------------------------------------------------=
   JOB DONE.
=------------------------------------------------------------------------------=
