
     Program PWSCF v.7.4.1 starts on 14Oct2025 at 15:20:26 

     This program is part of the open-source Quantum ESPRESSO suite
     for quantum simulation of materials; please cite
         "P. Giannozzi et al., J. Phys.:Condens. Matter 21 395502 (2009);
         "P. Giannozzi et al., J. Phys.:Condens. Matter 29 465901 (2017);
         "P. Giannozzi et al., J. Chem. Phys. 152 154105 (2020);
          URL http://www.quantum-espresso.org", 
     in publications or presentations arising from this work. More details at
     http://www.quantum-espresso.org/quote

     Parallel version (MPI & OpenMP), running on       1 processor cores
     Number of MPI processes:                 1
     Threads/MPI process:                     1

     MPI processes distributed on     1 nodes
     501945 MiB available memory on the printing compute node when the environment starts
 
     Reading input from pwscf.in
Warning: card &FCP ignored
Warning: card &RISM ignored

     Current dimensions of program PWSCF are:
     Max number of different atomic species (ntypx) = 10
     Max number of k-points (npk) =  40000
     Max angular momentum in pseudopotentials (lmaxx) =  4
     file Fe.pbesol-spn-kjpaw_psl.0.2.1.UPF: wavefunction(s)  3D renormalized
     file O.pbesol-n-kjpaw_psl.0.1.UPF: wavefunction(s)  2P renormalized
 check tnoseh fnoseh  F    1.000000000000000     
     Message from routine setup:
     using ibrav=0 with symmetry is DISCOURAGED, use correct ibrav instead
 
     Subspace diagonalization in iterative solution of the eigenvalue problem:
     a serial algorithm will be used

 
     G-vector sticks info
     --------------------
     sticks:   dense  smooth     PW     G-vecs:    dense   smooth      PW
     Sum       16507    5513   1485              1941693   373747   52181
 
     Using Slab Decomposition
 


     bravais-lattice index     =            0
     lattice parameter (alat)  =      14.1053  a.u.
     unit-cell volume          =    3239.6385 (a.u.)^3
     number of atoms/cell      =           33
     number of atomic types    =            3
     number of electrons       =       200.00
     number of Kohn-Sham states=          120
     kinetic-energy cutoff     =      90.0000  Ry
     charge density cutoff     =    1080.0000  Ry
     scf convergence threshold =      7.2E-09
     mixing beta               =       0.3000
     number of iterations used =            8  plain     mixing
     energy convergence thresh.=      3.6E-04
     force convergence thresh. =      1.0E-04
     press convergence thresh. =      5.0E-01
     Exchange-correlation= PBESOL
                           (   1   4  10   8   0   0   0)
     nstep                     =          180


     GPU acceleration is ACTIVE.  1 visible GPUs per MPI rank
     GPU-aware MPI enabled


     GPU used by master process:

        Device Number: 0
        Device name: NVIDIA A100-SXM-64GB
        Compute capability : 80
        Ratio of single to double precision performance  : 2
        Memory Clock Rate (KHz): 1593000
        Memory Bus Width (bits): 4096
        Peak Memory Bandwidth (GB/s): ******
     Hubbard projectors: ortho-atomic
     Hubbard parameters of DFT+U (Dudarev formulation) in eV:
     U(Fe-3d) =  4.5000

     Internal variables: lda_plus_u = T, lda_plus_u_kind = 0

     celldm(1)=  14.105308  celldm(2)=   0.000000  celldm(3)=   0.000000
     celldm(4)=   0.000000  celldm(5)=   0.000000  celldm(6)=   0.000000

     crystal axes: (cart. coord. in units of alat)
               a(1) = (   0.999887  -0.008676  -0.012280 )  
               a(2) = (   0.332592   0.963063  -0.017363 )  
               a(3) = (   0.533184   0.359600   1.183654 )  

     reciprocal axes: (cart. coord. in units 2 pi/alat)
               b(1) = (  0.992894 -0.349046 -0.341213 )  
               b(2) = (  0.005071  1.030915 -0.315481 )  
               b(3) = (  0.010375  0.011501  0.836674 )  


     PseudoPot. # 1 for Fe read from file:
     /leonardo_scratch/large/userexternal/nalghamd/mc_mace/GNoME-screening/2_space_group_DFT/pseudo_SSSP1.3_aiida/Fe.pbesol-spn-kjpaw_psl.0.2.1.UPF
     MD5 check sum: 4d7ec5aa2156491519a4322664fbbf52
     Pseudo is Projector augmented-wave + core cor, Zval = 16.0
     Generated using "atomic" code by A. Dal Corso  v.6.0 svn rev. 13079
     Shape of augmentation charge: PSQ
     Using radial grid of 1191 points,  6 beta functions with: 
                l(1) =   0
                l(2) =   0
                l(3) =   1
                l(4) =   1
                l(5) =   2
                l(6) =   2
     Q(r) pseudized with 0 coefficients 


     PseudoPot. # 2 for O  read from file:
     /leonardo_scratch/large/userexternal/nalghamd/mc_mace/GNoME-screening/2_space_group_DFT/pseudo_SSSP1.3_aiida/O.pbesol-n-kjpaw_psl.0.1.UPF
     MD5 check sum: 81d73d1479e654e5638b0319f0d6c2c7
     Pseudo is Projector augmented-wave + core cor, Zval =  6.0
     Generated using "atomic" code by A. Dal Corso  v.6.0 svn rev. 13079
     Shape of augmentation charge: BESSEL
     Using radial grid of 1095 points,  4 beta functions with: 
                l(1) =   0
                l(2) =   0
                l(3) =   1
                l(4) =   1
     Q(r) pseudized with 0 coefficients 


     PseudoPot. # 3 for P  read from file:
     /leonardo_scratch/large/userexternal/nalghamd/mc_mace/GNoME-screening/2_space_group_DFT/pseudo_SSSP1.3_aiida/P.pbesol-n-rrkjus_psl.1.0.0.UPF
     MD5 check sum: bbb94b1b16383820d6a769669b5d42db
     Pseudo is Ultrasoft + core correction, Zval =  5.0
     Generated using "atomic" code by A. Dal Corso  v.6.0 svn rev. 13079
     Using radial grid of 1147 points,  6 beta functions with: 
                l(1) =   0
                l(2) =   0
                l(3) =   1
                l(4) =   1
                l(5) =   2
                l(6) =   2
     Q(r) pseudized with 0 coefficients 


     atomic species   valence    mass     pseudopotential
     Fe               16.00    55.84500     Fe( 1.00)
     O                 6.00    15.99940     O ( 1.00)
     P                 5.00    30.97376     P ( 1.00)

     Starting magnetic structure 
     atomic species   magnetization
     Fe              0.100
     O               0.313
     P               0.100

      2 Sym. Ops., with inversion, found


                                    s                        frac. trans.

      isym =  1     identity                                     

 cryst.   s( 1) = (     1          0          0      )
                  (     0          1          0      )
                  (     0          0          1      )

 cart.    s( 1) = (  1.0000000  0.0000000  0.0000000 )
                  ( -0.0000000  1.0000000 -0.0000000 )
                  (  0.0000000 -0.0000000  1.0000000 )


      isym =  2     inversion                                    

 cryst.   s( 2) = (    -1          0          0      )
                  (     0         -1          0      )
                  (     0          0         -1      )

 cart.    s( 2) = ( -1.0000000 -0.0000000 -0.0000000 )
                  (  0.0000000 -1.0000000  0.0000000 )
                  ( -0.0000000  0.0000000 -1.0000000 )


   Cartesian axes

     site n.     atom                  positions (alat units)
         1        Fe     tau(   1) = (   0.4999435  -0.0043380  -0.0061400  )
         2        P      tau(   2) = (   1.4440319   1.0355457   0.7989426  )
         3        P      tau(   3) = (   0.6828058   0.4679084   0.9557356  )
         4        P      tau(   4) = (   0.4216309   0.2784408   0.3550684  )
         5        P      tau(   5) = (   1.1828570   0.8460780   0.1982754  )
         6        P      tau(   6) = (   1.0945244   0.3664673   0.5489993  )
         7        P      tau(   7) = (   0.8622857   0.2216057   0.0221694  )
         8        P      tau(   8) = (   0.7711384   0.9475192   0.6050117  )
         9        P      tau(   9) = (   1.0033770   1.0923807   1.1318416  )
        10        O      tau(  10) = (   0.6540646   1.0298669   0.7659071  )
        11        O      tau(  11) = (   0.9511408   1.2256698   0.9676130  )
        12        O      tau(  12) = (   1.2115981   0.2841196   0.3881039  )
        13        O      tau(  13) = (   0.9145220   0.0883167   0.1863981  )
        14        O      tau(  14) = (   1.3671623   1.1487569   0.6327851  )
        15        O      tau(  15) = (   0.5772539   0.5817065   1.1053523  )
        16        O      tau(  16) = (   0.4985005   0.1652295   0.5212259  )
        17        O      tau(  17) = (   1.2884089   0.7322799   0.0486587  )
        18        O      tau(  18) = (   1.4324975   1.1403356   0.9707079  )
        19        O      tau(  19) = (   0.6313965   0.5312867   0.7747823  )
        20        O      tau(  20) = (   0.4331653   0.1736509   0.1833031  )
        21        O      tau(  21) = (   1.2342662   0.7826997   0.3792287  )
        22        O      tau(  22) = (   1.3495640   0.8589536   0.8108400  )
        23        O      tau(  23) = (   0.8814638   0.4802860   1.0041013  )
        24        O      tau(  24) = (   0.5160988   0.4550328   0.3431711  )
        25        O      tau(  25) = (   0.9841989   0.8337005   0.1499097  )
        26        O      tau(  26) = (   1.1933881   0.4956424   0.6673053  )
        27        O      tau(  27) = (   1.2432639   0.4954540   1.0995424  )
        28        O      tau(  28) = (   0.6722746   0.8183440   0.4867058  )
        29        O      tau(  29) = (   0.6223988   0.8185324   0.0544686  )
        30        O      tau(  30) = (   0.9331041   0.8522230   0.6790351  )
        31        O      tau(  31) = (   1.0305814   0.9053659   1.0665676  )
        32        O      tau(  32) = (   0.9325587   0.4617635   0.4749760  )
        33        O      tau(  33) = (   0.8350813   0.4086206   0.0874434  )

   Crystallographic axes

     site n.     atom                  positions (cryst. coord.)
         1        Fe     tau(   1) = (  0.5000000 -0.0000000  0.0000000  )
         2        P      tau(   2) = (  0.7997079  0.8228306  0.6953466  )
         3        P      tau(   3) = (  0.1885226  0.1843198  0.8121047  )
         4        P      tau(   4) = (  0.2002921  0.1771694  0.3046534  )
         5        P      tau(   5) = (  0.8114774  0.8156802  0.1878953  )
         6        P      tau(   6) = (  0.7715069  0.2101478  0.4749041  )
         7        P      tau(   7) = (  0.7712432  0.2258350  0.0300438  )
         8        P      tau(   8) = (  0.2284931  0.7898522  0.5250959  )
         9        P      tau(   9) = (  0.2287568  0.7741650  0.9699562  )
        10        O      tau(  10) = (  0.0286085  0.8233927  0.6594453  )
        11        O      tau(  11) = (  0.1864048  0.9631208  0.8335415  )
        12        O      tau(  12) = (  0.9713915  0.1766073  0.3405547  )
        13        O      tau(  13) = (  0.8135952  0.0368792  0.1664585  )
        14        O      tau(  14) = (  0.7405638  0.9915715  0.5568316  )
        15        O      tau(  15) = ( -0.0070512  0.2538995  0.9374988  )
        16        O      tau(  16) = (  0.2594362  0.0084285  0.4431684  )
        17        O      tau(  17) = (  1.0070512  0.7461005  0.0625012  )
        18        O      tau(  18) = (  0.6930704  0.8766129  0.8401437  )
        19        O      tau(  19) = (  0.1771004  0.3064840  0.6609014  )
        20        O      tau(  20) = (  0.3069296  0.1233871  0.1598563  )
        21        O      tau(  21) = (  0.8228996  0.6935160  0.3390986  )
        22        O      tau(  22) = (  0.7634904  0.6365468  0.7022897  )
        23        O      tau(  23) = (  0.3649456  0.1828288  0.8547745  )
        24        O      tau(  24) = (  0.2365096  0.3634532  0.2977103  )
        25        O      tau(  25) = (  0.6350544  0.8171712  0.1452255  )
        26        O      tau(  26) = (  0.7842125  0.3064944  0.5763990  )
        27        O      tau(  27) = (  0.6863146  0.1701905  0.9385558  )
        28        O      tau(  28) = (  0.2157875  0.6935056  0.4236010  )
        29        O      tau(  29) = (  0.3136854  0.8298095  0.0614442  )
        30        O      tau(  30) = (  0.3973128  0.6690782  0.5876137  )
        31        O      tau(  31) = (  0.3433170  0.6020993  0.9134746  )
        32        O      tau(  32) = (  0.6026872  0.3309218  0.4123863  )
        33        O      tau(  33) = (  0.6566830  0.3979007  0.0865254  )

     number of k points=   123  Marzari-Vanderbilt smearing, width (Ry)=  0.0200
                       cart. coord. in units 2pi/alat
        k(    1) = (   0.0000000   0.0000000   0.0000000), wk =   0.0040816
        k(    2) = (   0.0020750   0.0023003   0.1673347), wk =   0.0081633
        k(    3) = (   0.0041501   0.0046005   0.3346695), wk =   0.0081633
        k(    4) = (   0.0007244   0.1472736  -0.0450687), wk =   0.0081633
        k(    5) = (   0.0027994   0.1495738   0.1222661), wk =   0.0081633
        k(    6) = (   0.0048745   0.1518741   0.2896008), wk =   0.0081633
        k(    7) = (  -0.0034257   0.1426730  -0.3797382), wk =   0.0081633
        k(    8) = (  -0.0013507   0.1449733  -0.2124034), wk =   0.0081633
        k(    9) = (   0.0014488   0.2945471  -0.0901374), wk =   0.0081633
        k(   10) = (   0.0035238   0.2968474   0.0771974), wk =   0.0081633
        k(   11) = (   0.0055989   0.2991476   0.2445321), wk =   0.0081633
        k(   12) = (  -0.0027013   0.2899466  -0.4248069), wk =   0.0081633
        k(   13) = (  -0.0006263   0.2922469  -0.2574721), wk =   0.0081633
        k(   14) = (   0.0021731   0.4418207  -0.1352061), wk =   0.0081633
        k(   15) = (   0.0042482   0.4441209   0.0321287), wk =   0.0081633
        k(   16) = (   0.0063232   0.4464212   0.1994634), wk =   0.0081633
        k(   17) = (  -0.0019770   0.4372201  -0.4698755), wk =   0.0081633
        k(   18) = (   0.0000981   0.4395204  -0.3025408), wk =   0.0081633
        k(   19) = (   0.1418420  -0.0498637  -0.0487448), wk =   0.0081633
        k(   20) = (   0.1439170  -0.0475634   0.1185900), wk =   0.0081633
        k(   21) = (   0.1459921  -0.0452631   0.2859247), wk =   0.0081633
        k(   22) = (   0.1376919  -0.0544642  -0.3834142), wk =   0.0081633
        k(   23) = (   0.1397669  -0.0521639  -0.2160795), wk =   0.0081633
        k(   24) = (   0.1425664   0.0974099  -0.0938134), wk =   0.0081633
        k(   25) = (   0.1446414   0.0997102   0.0735213), wk =   0.0081633
        k(   26) = (   0.1467165   0.1020104   0.2408560), wk =   0.0081633
        k(   27) = (   0.1384163   0.0928094  -0.4284829), wk =   0.0081633
        k(   28) = (   0.1404913   0.0951096  -0.2611482), wk =   0.0081633
        k(   29) = (   0.1432907   0.2446835  -0.1388821), wk =   0.0081633
        k(   30) = (   0.1453658   0.2469837   0.0284526), wk =   0.0081633
        k(   31) = (   0.1474408   0.2492840   0.1957874), wk =   0.0081633
        k(   32) = (   0.1391406   0.2400829  -0.4735516), wk =   0.0081633
        k(   33) = (   0.1412157   0.2423832  -0.3062169), wk =   0.0081633
        k(   34) = (   0.1440151   0.3919570  -0.1839508), wk =   0.0081633
        k(   35) = (   0.1460902   0.3942573  -0.0166161), wk =   0.0081633
        k(   36) = (   0.1481652   0.3965576   0.1507187), wk =   0.0081633
        k(   37) = (   0.1398650   0.3873565  -0.5186203), wk =   0.0081633
        k(   38) = (   0.1419401   0.3896568  -0.3512856), wk =   0.0081633
        k(   39) = (   0.1396689  -0.4916843   0.0864613), wk =   0.0081633
        k(   40) = (   0.1417439  -0.4893841   0.2537960), wk =   0.0081633
        k(   41) = (   0.1438190  -0.4870838   0.4211308), wk =   0.0081633
        k(   42) = (   0.1355188  -0.4962849  -0.2482082), wk =   0.0081633
        k(   43) = (   0.1375938  -0.4939846  -0.0808734), wk =   0.0081633
        k(   44) = (   0.1403932  -0.3444108   0.0413926), wk =   0.0081633
        k(   45) = (   0.1424683  -0.3421105   0.2087274), wk =   0.0081633
        k(   46) = (   0.1445433  -0.3398102   0.3760621), wk =   0.0081633
        k(   47) = (   0.1362431  -0.3490113  -0.2932769), wk =   0.0081633
        k(   48) = (   0.1383182  -0.3467110  -0.1259421), wk =   0.0081633
        k(   49) = (   0.1411176  -0.1971372  -0.0036761), wk =   0.0081633
        k(   50) = (   0.1431927  -0.1948370   0.1636587), wk =   0.0081633
        k(   51) = (   0.1452677  -0.1925367   0.3309934), wk =   0.0081633
        k(   52) = (   0.1369675  -0.2017377  -0.3383456), wk =   0.0081633
        k(   53) = (   0.1390426  -0.1994375  -0.1710108), wk =   0.0081633
        k(   54) = (   0.2836840  -0.0997273  -0.0974895), wk =   0.0081633
        k(   55) = (   0.2857590  -0.0974271   0.0698452), wk =   0.0081633
        k(   56) = (   0.2878341  -0.0951268   0.2371800), wk =   0.0081633
        k(   57) = (   0.2795339  -0.1043278  -0.4321590), wk =   0.0081633
        k(   58) = (   0.2816089  -0.1020276  -0.2648243), wk =   0.0081633
        k(   59) = (   0.2844083   0.0475462  -0.1425582), wk =   0.0081633
        k(   60) = (   0.2864834   0.0498465   0.0247765), wk =   0.0081633
        k(   61) = (   0.2885584   0.0521468   0.1921113), wk =   0.0081633
        k(   62) = (   0.2802582   0.0429457  -0.4772277), wk =   0.0081633
        k(   63) = (   0.2823333   0.0452460  -0.3098929), wk =   0.0081633
        k(   64) = (   0.2851327   0.1948198  -0.1876269), wk =   0.0081633
        k(   65) = (   0.2872078   0.1971201  -0.0202921), wk =   0.0081633
        k(   66) = (   0.2892828   0.1994203   0.1470426), wk =   0.0081633
        k(   67) = (   0.2809826   0.1902193  -0.5222964), wk =   0.0081633
        k(   68) = (   0.2830577   0.1925195  -0.3549616), wk =   0.0081633
        k(   69) = (   0.2858571   0.3420934  -0.2326956), wk =   0.0081633
        k(   70) = (   0.2879321   0.3443936  -0.0653608), wk =   0.0081633
        k(   71) = (   0.2900072   0.3466939   0.1019739), wk =   0.0081633
        k(   72) = (   0.2817070   0.3374928  -0.5673651), wk =   0.0081633
        k(   73) = (   0.2837820   0.3397931  -0.4000303), wk =   0.0081633
        k(   74) = (   0.2815108  -0.5415480   0.0377166), wk =   0.0081633
        k(   75) = (   0.2835859  -0.5392477   0.2050513), wk =   0.0081633
        k(   76) = (   0.2856609  -0.5369475   0.3723860), wk =   0.0081633
        k(   77) = (   0.2773607  -0.5461485  -0.2969529), wk =   0.0081633
        k(   78) = (   0.2794358  -0.5438483  -0.1296182), wk =   0.0081633
        k(   79) = (   0.2822352  -0.3942744  -0.0073521), wk =   0.0081633
        k(   80) = (   0.2843103  -0.3919742   0.1599826), wk =   0.0081633
        k(   81) = (   0.2863853  -0.3896739   0.3273174), wk =   0.0081633
        k(   82) = (   0.2780851  -0.3988750  -0.3420216), wk =   0.0081633
        k(   83) = (   0.2801602  -0.3965747  -0.1746869), wk =   0.0081633
        k(   84) = (   0.2829596  -0.2470009  -0.0524208), wk =   0.0081633
        k(   85) = (   0.2850346  -0.2447006   0.1149139), wk =   0.0081633
        k(   86) = (   0.2871097  -0.2424003   0.2822487), wk =   0.0081633
        k(   87) = (   0.2788095  -0.2516014  -0.3870903), wk =   0.0081633
        k(   88) = (   0.2808845  -0.2493011  -0.2197556), wk =   0.0081633
        k(   89) = (   0.4255259  -0.1495910  -0.1462343), wk =   0.0081633
        k(   90) = (   0.4276010  -0.1472907   0.0211005), wk =   0.0081633
        k(   91) = (   0.4296760  -0.1449904   0.1884352), wk =   0.0081633
        k(   92) = (   0.4213758  -0.1541915  -0.4809037), wk =   0.0081633
        k(   93) = (   0.4234509  -0.1518912  -0.3135690), wk =   0.0081633
        k(   94) = (   0.4262503  -0.0023174  -0.1913029), wk =   0.0081633
        k(   95) = (   0.4283254  -0.0000171  -0.0239682), wk =   0.0081633
        k(   96) = (   0.4304004   0.0022831   0.1433665), wk =   0.0081633
        k(   97) = (   0.4221002  -0.0069179  -0.5259724), wk =   0.0081633
        k(   98) = (   0.4241753  -0.0046177  -0.3586377), wk =   0.0081633
        k(   99) = (   0.4269747   0.1449561  -0.2363716), wk =   0.0081633
        k(  100) = (   0.4290497   0.1472564  -0.0690369), wk =   0.0081633
        k(  101) = (   0.4311248   0.1495567   0.0982979), wk =   0.0081633
        k(  102) = (   0.4228246   0.1403556  -0.5710411), wk =   0.0081633
        k(  103) = (   0.4248996   0.1426559  -0.4037064), wk =   0.0081633
        k(  104) = (   0.4276991   0.2922297  -0.2814403), wk =   0.0081633
        k(  105) = (   0.4297741   0.2945300  -0.1141056), wk =   0.0081633
        k(  106) = (   0.4318492   0.2968302   0.0532292), wk =   0.0081633
        k(  107) = (   0.4235490   0.2876292  -0.6161098), wk =   0.0081633
        k(  108) = (   0.4256240   0.2899294  -0.4487751), wk =   0.0081633
        k(  109) = (   0.4233528  -0.5914117  -0.0110282), wk =   0.0081633
        k(  110) = (   0.4254279  -0.5891114   0.1563065), wk =   0.0081633
        k(  111) = (   0.4275029  -0.5868111   0.3236413), wk =   0.0081633
        k(  112) = (   0.4192027  -0.5960122  -0.3456977), wk =   0.0081633
        k(  113) = (   0.4212778  -0.5937119  -0.1783629), wk =   0.0081633
        k(  114) = (   0.4240772  -0.4441381  -0.0560969), wk =   0.0081633
        k(  115) = (   0.4261522  -0.4418378   0.1112379), wk =   0.0081633
        k(  116) = (   0.4282273  -0.4395376   0.2785726), wk =   0.0081633
        k(  117) = (   0.4199271  -0.4487386  -0.3907664), wk =   0.0081633
        k(  118) = (   0.4220021  -0.4464384  -0.2234316), wk =   0.0081633
        k(  119) = (   0.4248016  -0.2968645  -0.1011656), wk =   0.0081633
        k(  120) = (   0.4268766  -0.2945643   0.0661692), wk =   0.0081633
        k(  121) = (   0.4289517  -0.2922640   0.2335039), wk =   0.0081633
        k(  122) = (   0.4206515  -0.3014651  -0.4358351), wk =   0.0081633
        k(  123) = (   0.4227265  -0.2991648  -0.2685003), wk =   0.0081633

                       cryst. coord.
        k(    1) = (   0.0000000   0.0000000   0.0000000), wk =   0.0040816
        k(    2) = (   0.0000000   0.0000000   0.2000000), wk =   0.0081633
        k(    3) = (   0.0000000   0.0000000   0.4000000), wk =   0.0081633
        k(    4) = (   0.0000000   0.1428571  -0.0000000), wk =   0.0081633
        k(    5) = (   0.0000000   0.1428571   0.2000000), wk =   0.0081633
        k(    6) = (  -0.0000000   0.1428571   0.4000000), wk =   0.0081633
        k(    7) = (   0.0000000   0.1428571  -0.4000000), wk =   0.0081633
        k(    8) = (  -0.0000000   0.1428571  -0.2000000), wk =   0.0081633
        k(    9) = (   0.0000000   0.2857143  -0.0000000), wk =   0.0081633
        k(   10) = (  -0.0000000   0.2857143   0.2000000), wk =   0.0081633
        k(   11) = (   0.0000000   0.2857143   0.4000000), wk =   0.0081633
        k(   12) = (   0.0000000   0.2857143  -0.4000000), wk =   0.0081633
        k(   13) = (  -0.0000000   0.2857143  -0.2000000), wk =   0.0081633
        k(   14) = (   0.0000000   0.4285714  -0.0000000), wk =   0.0081633
        k(   15) = (   0.0000000   0.4285714   0.2000000), wk =   0.0081633
        k(   16) = (  -0.0000000   0.4285714   0.4000000), wk =   0.0081633
        k(   17) = (   0.0000000   0.4285714  -0.4000000), wk =   0.0081633
        k(   18) = (  -0.0000000   0.4285714  -0.2000000), wk =   0.0081633
        k(   19) = (   0.1428571  -0.0000000  -0.0000000), wk =   0.0081633
        k(   20) = (   0.1428571   0.0000000   0.2000000), wk =   0.0081633
        k(   21) = (   0.1428571  -0.0000000   0.4000000), wk =   0.0081633
        k(   22) = (   0.1428571   0.0000000  -0.4000000), wk =   0.0081633
        k(   23) = (   0.1428571  -0.0000000  -0.2000000), wk =   0.0081633
        k(   24) = (   0.1428571   0.1428571  -0.0000000), wk =   0.0081633
        k(   25) = (   0.1428571   0.1428571   0.2000000), wk =   0.0081633
        k(   26) = (   0.1428571   0.1428571   0.4000000), wk =   0.0081633
        k(   27) = (   0.1428571   0.1428571  -0.4000000), wk =   0.0081633
        k(   28) = (   0.1428571   0.1428571  -0.2000000), wk =   0.0081633
        k(   29) = (   0.1428571   0.2857143   0.0000000), wk =   0.0081633
        k(   30) = (   0.1428571   0.2857143   0.2000000), wk =   0.0081633
        k(   31) = (   0.1428571   0.2857143   0.4000000), wk =   0.0081633
        k(   32) = (   0.1428571   0.2857143  -0.4000000), wk =   0.0081633
        k(   33) = (   0.1428571   0.2857143  -0.2000000), wk =   0.0081633
        k(   34) = (   0.1428571   0.4285714   0.0000000), wk =   0.0081633
        k(   35) = (   0.1428571   0.4285714   0.2000000), wk =   0.0081633
        k(   36) = (   0.1428571   0.4285714   0.4000000), wk =   0.0081633
        k(   37) = (   0.1428571   0.4285714  -0.4000000), wk =   0.0081633
        k(   38) = (   0.1428571   0.4285714  -0.2000000), wk =   0.0081633
        k(   39) = (   0.1428571  -0.4285714   0.0000000), wk =   0.0081633
        k(   40) = (   0.1428571  -0.4285714   0.2000000), wk =   0.0081633
        k(   41) = (   0.1428571  -0.4285714   0.4000000), wk =   0.0081633
        k(   42) = (   0.1428571  -0.4285714  -0.4000000), wk =   0.0081633
        k(   43) = (   0.1428571  -0.4285714  -0.2000000), wk =   0.0081633
        k(   44) = (   0.1428571  -0.2857143  -0.0000000), wk =   0.0081633
        k(   45) = (   0.1428571  -0.2857143   0.2000000), wk =   0.0081633
        k(   46) = (   0.1428571  -0.2857143   0.4000000), wk =   0.0081633
        k(   47) = (   0.1428571  -0.2857143  -0.4000000), wk =   0.0081633
        k(   48) = (   0.1428571  -0.2857143  -0.2000000), wk =   0.0081633
        k(   49) = (   0.1428571  -0.1428571   0.0000000), wk =   0.0081633
        k(   50) = (   0.1428571  -0.1428571   0.2000000), wk =   0.0081633
        k(   51) = (   0.1428571  -0.1428571   0.4000000), wk =   0.0081633
        k(   52) = (   0.1428571  -0.1428571  -0.4000000), wk =   0.0081633
        k(   53) = (   0.1428571  -0.1428571  -0.2000000), wk =   0.0081633
        k(   54) = (   0.2857143  -0.0000000  -0.0000000), wk =   0.0081633
        k(   55) = (   0.2857143   0.0000000   0.2000000), wk =   0.0081633
        k(   56) = (   0.2857143   0.0000000   0.4000000), wk =   0.0081633
        k(   57) = (   0.2857143  -0.0000000  -0.4000000), wk =   0.0081633
        k(   58) = (   0.2857143   0.0000000  -0.2000000), wk =   0.0081633
        k(   59) = (   0.2857143   0.1428571   0.0000000), wk =   0.0081633
        k(   60) = (   0.2857143   0.1428571   0.2000000), wk =   0.0081633
        k(   61) = (   0.2857143   0.1428571   0.4000000), wk =   0.0081633
        k(   62) = (   0.2857143   0.1428571  -0.4000000), wk =   0.0081633
        k(   63) = (   0.2857143   0.1428571  -0.2000000), wk =   0.0081633
        k(   64) = (   0.2857143   0.2857143  -0.0000000), wk =   0.0081633
        k(   65) = (   0.2857143   0.2857143   0.2000000), wk =   0.0081633
        k(   66) = (   0.2857143   0.2857143   0.4000000), wk =   0.0081633
        k(   67) = (   0.2857143   0.2857143  -0.4000000), wk =   0.0081633
        k(   68) = (   0.2857143   0.2857143  -0.2000000), wk =   0.0081633
        k(   69) = (   0.2857143   0.4285714  -0.0000000), wk =   0.0081633
        k(   70) = (   0.2857143   0.4285714   0.2000000), wk =   0.0081633
        k(   71) = (   0.2857143   0.4285714   0.4000000), wk =   0.0081633
        k(   72) = (   0.2857143   0.4285714  -0.4000000), wk =   0.0081633
        k(   73) = (   0.2857143   0.4285714  -0.2000000), wk =   0.0081633
        k(   74) = (   0.2857143  -0.4285714  -0.0000000), wk =   0.0081633
        k(   75) = (   0.2857143  -0.4285714   0.2000000), wk =   0.0081633
        k(   76) = (   0.2857143  -0.4285714   0.4000000), wk =   0.0081633
        k(   77) = (   0.2857143  -0.4285714  -0.4000000), wk =   0.0081633
        k(   78) = (   0.2857143  -0.4285714  -0.2000000), wk =   0.0081633
        k(   79) = (   0.2857143  -0.2857143   0.0000000), wk =   0.0081633
        k(   80) = (   0.2857143  -0.2857143   0.2000000), wk =   0.0081633
        k(   81) = (   0.2857143  -0.2857143   0.4000000), wk =   0.0081633
        k(   82) = (   0.2857143  -0.2857143  -0.4000000), wk =   0.0081633
        k(   83) = (   0.2857143  -0.2857143  -0.2000000), wk =   0.0081633
        k(   84) = (   0.2857143  -0.1428571   0.0000000), wk =   0.0081633
        k(   85) = (   0.2857143  -0.1428571   0.2000000), wk =   0.0081633
        k(   86) = (   0.2857143  -0.1428571   0.4000000), wk =   0.0081633
        k(   87) = (   0.2857143  -0.1428571  -0.4000000), wk =   0.0081633
        k(   88) = (   0.2857143  -0.1428571  -0.2000000), wk =   0.0081633
        k(   89) = (   0.4285714  -0.0000000   0.0000000), wk =   0.0081633
        k(   90) = (   0.4285714   0.0000000   0.2000000), wk =   0.0081633
        k(   91) = (   0.4285714   0.0000000   0.4000000), wk =   0.0081633
        k(   92) = (   0.4285714   0.0000000  -0.4000000), wk =   0.0081633
        k(   93) = (   0.4285714   0.0000000  -0.2000000), wk =   0.0081633
        k(   94) = (   0.4285714   0.1428571   0.0000000), wk =   0.0081633
        k(   95) = (   0.4285714   0.1428571   0.2000000), wk =   0.0081633
        k(   96) = (   0.4285714   0.1428571   0.4000000), wk =   0.0081633
        k(   97) = (   0.4285714   0.1428571  -0.4000000), wk =   0.0081633
        k(   98) = (   0.4285714   0.1428571  -0.2000000), wk =   0.0081633
        k(   99) = (   0.4285714   0.2857143   0.0000000), wk =   0.0081633
        k(  100) = (   0.4285714   0.2857143   0.2000000), wk =   0.0081633
        k(  101) = (   0.4285714   0.2857143   0.4000000), wk =   0.0081633
        k(  102) = (   0.4285714   0.2857143  -0.4000000), wk =   0.0081633
        k(  103) = (   0.4285714   0.2857143  -0.2000000), wk =   0.0081633
        k(  104) = (   0.4285714   0.4285714   0.0000000), wk =   0.0081633
        k(  105) = (   0.4285714   0.4285714   0.2000000), wk =   0.0081633
        k(  106) = (   0.4285714   0.4285714   0.4000000), wk =   0.0081633
        k(  107) = (   0.4285714   0.4285714  -0.4000000), wk =   0.0081633
        k(  108) = (   0.4285714   0.4285714  -0.2000000), wk =   0.0081633
        k(  109) = (   0.4285714  -0.4285714   0.0000000), wk =   0.0081633
        k(  110) = (   0.4285714  -0.4285714   0.2000000), wk =   0.0081633
        k(  111) = (   0.4285714  -0.4285714   0.4000000), wk =   0.0081633
        k(  112) = (   0.4285714  -0.4285714  -0.4000000), wk =   0.0081633
        k(  113) = (   0.4285714  -0.4285714  -0.2000000), wk =   0.0081633
        k(  114) = (   0.4285714  -0.2857143   0.0000000), wk =   0.0081633
        k(  115) = (   0.4285714  -0.2857143   0.2000000), wk =   0.0081633
        k(  116) = (   0.4285714  -0.2857143   0.4000000), wk =   0.0081633
        k(  117) = (   0.4285714  -0.2857143  -0.4000000), wk =   0.0081633
        k(  118) = (   0.4285714  -0.2857143  -0.2000000), wk =   0.0081633
        k(  119) = (   0.4285714  -0.1428571  -0.0000000), wk =   0.0081633
        k(  120) = (   0.4285714  -0.1428571   0.2000000), wk =   0.0081633
        k(  121) = (   0.4285714  -0.1428571   0.4000000), wk =   0.0081633
        k(  122) = (   0.4285714  -0.1428571  -0.4000000), wk =   0.0081633
        k(  123) = (   0.4285714  -0.1428571  -0.2000000), wk =   0.0081633

     Dense  grid:  1941693 G-vectors     FFT dimensions: ( 150, 160, 200)

     Smooth grid:   373747 G-vectors     FFT dimensions: (  90,  90, 120)

     Dynamical RAM for                 wfc:      85.53 MB

     Dynamical RAM for     wfc (w. buffer):   21125.56 MB

     Dynamical RAM for             U proj.:       3.56 MB

     Dynamical RAM for  U proj. (w. buff.):     880.23 MB

     Dynamical RAM for           str. fact:      88.88 MB

     Dynamical RAM for           local pot:       0.00 MB

     Dynamical RAM for          nlocal pot:     252.31 MB

     Dynamical RAM for                qrad:      15.81 MB

     Dynamical RAM for          rho,v,vnew:     397.49 MB

     Dynamical RAM for               rhoin:     132.50 MB

     Dynamical RAM for            rho*nmix:     948.09 MB

     Dynamical RAM for           G-vectors:     113.96 MB

     Dynamical RAM for          h,s,v(r/c):       0.66 MB

     Dynamical RAM for          <psi|beta>:       0.65 MB

     Dynamical RAM for      wfcinit/wfcrot:     171.39 MB

     Dynamical RAM for           addusdens:    6251.48 MB

     Dynamical RAM for          addusforce:    7614.55 MB

     Dynamical RAM for         addusstress:    5999.65 MB

     Estimated static dynamical RAM per process >      22.80 GB

     Estimated max dynamical RAM per process >      31.16 GB
     Generating pointlists ...
     new r_m :   0.1081 (alat units)  1.5251 (a.u.) for type    1
     new r_m :   0.0819 (alat units)  1.1550 (a.u.) for type    2
     new r_m :   0.0819 (alat units)  1.1550 (a.u.) for type    3

     Initial potential from superposition of free atoms

     starting charge     199.9983, renormalised to     200.0000

     HUBBARD ENERGY =    0.1323  (Ry)

     STARTING HUBBARD OCCUPATIONS:

     =================== HUBBARD OCCUPATIONS ===================
     ------------------------ ATOM    1 ------------------------
     Tr[ns(  1)] (up, down, total) =   5.00000  1.00000  6.00000
     Atomic magnetic moment for atom   1 =   4.00000
     SPIN  1
     eigenvalues:
       1.000  1.000  1.000  1.000  1.000
     eigenvectors (columns):
       1.000  0.000  0.000  0.000  0.000
       0.000  1.000  0.000  0.000  0.000
       0.000  0.000  1.000  0.000  0.000
       0.000  0.000  0.000  1.000  0.000
       0.000  0.000  0.000  0.000  1.000
     occupation matrix ns (before diag.):
       1.000  0.000  0.000  0.000  0.000
       0.000  1.000  0.000  0.000  0.000
       0.000  0.000  1.000  0.000  0.000
       0.000  0.000  0.000  1.000  0.000
       0.000  0.000  0.000  0.000  1.000
     SPIN  2
     eigenvalues:
       0.200  0.200  0.200  0.200  0.200
     eigenvectors (columns):
       1.000  0.000  0.000  0.000  0.000
       0.000  1.000  0.000  0.000  0.000
       0.000  0.000  1.000  0.000  0.000
       0.000  0.000  0.000  1.000  0.000
       0.000  0.000  0.000  0.000  1.000
     occupation matrix ns (before diag.):
       0.200  0.000  0.000  0.000  0.000
       0.000  0.200  0.000  0.000  0.000
       0.000  0.000  0.200  0.000  0.000
       0.000  0.000  0.000  0.200  0.000
       0.000  0.000  0.000  0.000  0.200

     Number of occupied Hubbard levels =    6.0000

     Atomic wfc used for Hubbard projectors are orthogonalized

     Starting wfcs are  141 randomized atomic wfcs
     Checking if some PAW data can be deallocated... 

     total cpu time spent up to now is       31.9 secs

     Self-consistent Calculation
[tb_dev] Currently allocated     1.70E+00 Mbytes, locked:    0 /   3
[tb_pin] Currently allocated     0.00E+00 Mbytes, locked:    0 /   0

     iteration #  1     ecut=    90.00 Ry     beta= 0.30
     CG style diagonalization

---- Real-time Memory Report at c_bands before calling an iterative solver
         23973 MiB given to the printing process from OS
             0 MiB allocation reported by mallinfo(arena+hblkhd)
        474754 MiB available memory on the node where the printing process lives
     GPU memory used/free/total (MiB): 11118 / 53826 / 64944
------------------
     ethr =  1.00E-02,  avg # of iterations =  3.2

     =================== HUBBARD OCCUPATIONS ===================
     ------------------------ ATOM    1 ------------------------
     Tr[ns(  1)] (up, down, total) =   3.51087  0.51528  4.02615
     Atomic magnetic moment for atom   1 =   2.99559
     SPIN  1
     eigenvalues:
       0.246  0.272  0.997  0.998  0.998
     eigenvectors (columns):
      -0.289 -0.296 -0.552  0.717 -0.102
      -0.286  0.615 -0.455 -0.282 -0.503
       0.785 -0.182 -0.556 -0.195 -0.057
       0.369  0.087  0.423  0.409 -0.714
       0.287  0.702 -0.030  0.449  0.472
     occupation matrix ns (before diag.):
       0.871  0.070  0.131  0.099  0.213
       0.070  0.662  0.250  0.041 -0.252
       0.131  0.250  0.510 -0.206 -0.076
       0.099  0.041 -0.206  0.890 -0.124
       0.213 -0.252 -0.076 -0.124  0.579
     SPIN  2
     eigenvalues:
       0.059  0.070  0.071  0.145  0.170
     eigenvectors (columns):
       0.523  0.535  0.471  0.372 -0.283
       0.556 -0.010 -0.476  0.301  0.611
       0.623 -0.229  0.014 -0.720 -0.205
      -0.152  0.806 -0.398 -0.408  0.043
      -0.082  0.107  0.627 -0.294  0.709
     occupation matrix ns (before diag.):
       0.086 -0.012 -0.018 -0.012 -0.027
      -0.012  0.111 -0.032 -0.005  0.037
      -0.018 -0.032  0.109  0.022  0.002
      -0.012 -0.005  0.022  0.083  0.012
      -0.027  0.037  0.002  0.012  0.127

     Number of occupied Hubbard levels =    4.0262

     negative rho (up, down):  0.000E+00 1.995E-05

     HUBBARD ENERGY =    0.1394  (Ry)

     total cpu time spent up to now is      412.6 secs

     total energy              =   -1417.79651180 Ry
     estimated scf accuracy    <      11.22468296 Ry

     total magnetization       =     6.04 Bohr mag/cell
     absolute magnetization    =    11.24 Bohr mag/cell
[tb_dev] Currently allocated     0.00E+00 Mbytes, locked:    0 /   0
[tb_pin] Currently allocated     0.00E+00 Mbytes, locked:    0 /   0

     iteration #  2     ecut=    90.00 Ry     beta= 0.30
     CG style diagonalization

---- Real-time Memory Report at c_bands before calling an iterative solver
         24194 MiB given to the printing process from OS
             0 MiB allocation reported by mallinfo(arena+hblkhd)
        474490 MiB available memory on the node where the printing process lives
     GPU memory used/free/total (MiB): 11360 / 53584 / 64944
------------------
     ethr =  5.61E-03,  avg # of iterations =  3.2

     =================== HUBBARD OCCUPATIONS ===================
     ------------------------ ATOM    1 ------------------------
     Tr[ns(  1)] (up, down, total) =   4.93068  4.92183  9.85251
     Atomic magnetic moment for atom   1 =   0.00884
     SPIN  1
     eigenvalues:
       0.983  0.984  0.987  0.988  0.988
     eigenvectors (columns):
       0.092 -0.298 -0.767 -0.460 -0.320
       0.259  0.630 -0.209  0.396 -0.579
      -0.918 -0.041 -0.001  0.109 -0.380
      -0.209  0.174 -0.606  0.432  0.610
      -0.197  0.695  0.012 -0.658  0.213
     occupation matrix ns (before diag.):
       0.987  0.000  0.000 -0.000  0.001
       0.000  0.986  0.001 -0.000 -0.001
       0.000  0.001  0.984 -0.001 -0.001
      -0.000 -0.000 -0.001  0.987 -0.001
       0.001 -0.001 -0.001 -0.001  0.986
     SPIN  2
     eigenvalues:
       0.979  0.982  0.986  0.987  0.987
     eigenvectors (columns):
       0.085 -0.226  0.751  0.289  0.543
      -0.658  0.310  0.375 -0.574  0.020
       0.659  0.656  0.134 -0.309  0.150
       0.029  0.225  0.474  0.372 -0.765
      -0.353  0.610 -0.230  0.594  0.312
     occupation matrix ns (before diag.):
       0.986  0.000  0.000 -0.000  0.001
       0.000  0.983  0.002 -0.000 -0.003
       0.000  0.002  0.982 -0.001 -0.000
      -0.000 -0.000 -0.001  0.987 -0.001
       0.001 -0.003 -0.000 -0.001  0.984

     Number of occupied Hubbard levels =    9.8525

     HUBBARD ENERGY =    0.2028  (Ry)

     total cpu time spent up to now is      691.4 secs

     total energy              =   -1423.26151543 Ry
     estimated scf accuracy    <      28.89414263 Ry

     total magnetization       =    10.00 Bohr mag/cell
     absolute magnetization    =    12.82 Bohr mag/cell
[tb_dev] Currently allocated     0.00E+00 Mbytes, locked:    0 /   0
[tb_pin] Currently allocated     0.00E+00 Mbytes, locked:    0 /   0

     iteration #  3     ecut=    90.00 Ry     beta= 0.30
     CG style diagonalization

---- Real-time Memory Report at c_bands before calling an iterative solver
         24217 MiB given to the printing process from OS
             0 MiB allocation reported by mallinfo(arena+hblkhd)
        474426 MiB available memory on the node where the printing process lives
     GPU memory used/free/total (MiB): 11362 / 53582 / 64944
------------------
     ethr =  5.61E-03,  avg # of iterations =  3.0

     =================== HUBBARD OCCUPATIONS ===================
     ------------------------ ATOM    1 ------------------------
     Tr[ns(  1)] (up, down, total) =   3.49357  0.82821  4.32178
     Atomic magnetic moment for atom   1 =   2.66536
     SPIN  1
     eigenvalues:
       0.225  0.282  0.995  0.996  0.996
     eigenvectors (columns):
      -0.297 -0.286 -0.865 -0.235 -0.165
      -0.273  0.621  0.064 -0.146 -0.717
       0.780 -0.201 -0.006 -0.456 -0.378
       0.368  0.076 -0.324  0.825 -0.271
       0.306  0.697 -0.378 -0.188  0.492
     occupation matrix ns (before diag.):
       0.869  0.065  0.138  0.100  0.212
       0.065  0.663  0.253  0.044 -0.245
       0.138  0.253  0.498 -0.211 -0.084
       0.100  0.044 -0.211  0.887 -0.125
       0.212 -0.245 -0.084 -0.125  0.577
     SPIN  2
     eigenvalues:
       0.098  0.116  0.118  0.224  0.273
     eigenvectors (columns):
      -0.540  0.666 -0.056  0.439 -0.262
      -0.449 -0.382 -0.408  0.339  0.609
      -0.694 -0.206  0.110 -0.650 -0.205
       0.159  0.346 -0.822 -0.423  0.018
      -0.018  0.499  0.377 -0.301  0.720
     occupation matrix ns (before diag.):
       0.142 -0.014 -0.029 -0.019 -0.044
      -0.014  0.183 -0.049 -0.012  0.057
      -0.029 -0.049  0.159  0.031 -0.002
      -0.019 -0.012  0.031  0.136  0.015
      -0.044  0.057 -0.002  0.015  0.207

     Number of occupied Hubbard levels =    4.3218

     negative rho (up, down):  0.000E+00 1.613E-05

     HUBBARD ENERGY =    0.2285  (Ry)

     total cpu time spent up to now is      952.2 secs

     total energy              =   -1426.08027132 Ry
     estimated scf accuracy    <       4.57944707 Ry

     total magnetization       =     6.00 Bohr mag/cell
     absolute magnetization    =     9.57 Bohr mag/cell
[tb_dev] Currently allocated     0.00E+00 Mbytes, locked:    0 /   0
[tb_pin] Currently allocated     0.00E+00 Mbytes, locked:    0 /   0

     iteration #  4     ecut=    90.00 Ry     beta= 0.30
     CG style diagonalization

---- Real-time Memory Report at c_bands before calling an iterative solver
         24241 MiB given to the printing process from OS
             0 MiB allocation reported by mallinfo(arena+hblkhd)
        474371 MiB available memory on the node where the printing process lives
     GPU memory used/free/total (MiB): 11362 / 53582 / 64944
------------------
     ethr =  2.29E-03,  avg # of iterations =  3.0

     =================== HUBBARD OCCUPATIONS ===================
     ------------------------ ATOM    1 ------------------------
     Tr[ns(  1)] (up, down, total) =   4.98559  2.39806  7.38365
     Atomic magnetic moment for atom   1 =   2.58752
     SPIN  1
     eigenvalues:
       0.987  0.996  0.997  0.997  1.008
     eigenvectors (columns):
      -0.273  0.916  0.216 -0.176 -0.093
       0.058  0.011 -0.253 -0.696  0.669
       0.734  0.022  0.290 -0.448 -0.420
       0.339  0.318 -0.850  0.179 -0.170
       0.519  0.242  0.287  0.501  0.582
     occupation matrix ns (before diag.):
       0.996 -0.000  0.002  0.001  0.001
      -0.000  1.002 -0.003 -0.002  0.004
       0.002 -0.003  0.994 -0.002 -0.006
       0.001 -0.002 -0.002  0.996 -0.003
       0.001  0.004 -0.006 -0.003  0.998
     SPIN  2
     eigenvalues:
       0.367  0.425  0.465  0.525  0.616
     eigenvectors (columns):
       0.152  0.742  0.433  0.304 -0.384
      -0.134 -0.494 -0.066  0.435 -0.738
       0.810  0.078 -0.535 -0.094 -0.207
       0.280 -0.293  0.599 -0.631 -0.280
       0.474 -0.337  0.403  0.558  0.433
     occupation matrix ns (before diag.):
       0.469  0.067 -0.004  0.009 -0.012
       0.067  0.547  0.033  0.013 -0.034
      -0.004  0.033  0.407 -0.009 -0.053
       0.009  0.013 -0.009  0.490 -0.057
      -0.012 -0.034 -0.053 -0.057  0.485

     Number of occupied Hubbard levels =    7.3837

     negative rho (up, down):  0.000E+00 2.256E-05

     HUBBARD ENERGY =    0.2401  (Ry)

     total cpu time spent up to now is     1211.3 secs

     total energy              =   -1426.59494050 Ry
     estimated scf accuracy    <       5.47938380 Ry

     total magnetization       =     9.42 Bohr mag/cell
     absolute magnetization    =    11.84 Bohr mag/cell
[tb_dev] Currently allocated     0.00E+00 Mbytes, locked:    0 /   0
[tb_pin] Currently allocated     0.00E+00 Mbytes, locked:    0 /   0

     iteration #  5     ecut=    90.00 Ry     beta= 0.30
     CG style diagonalization

---- Real-time Memory Report at c_bands before calling an iterative solver
         24269 MiB given to the printing process from OS
             0 MiB allocation reported by mallinfo(arena+hblkhd)
        474301 MiB available memory on the node where the printing process lives
     GPU memory used/free/total (MiB): 11362 / 53582 / 64944
------------------
     ethr =  2.29E-03,  avg # of iterations =  3.0

     =================== HUBBARD OCCUPATIONS ===================
     ------------------------ ATOM    1 ------------------------
     Tr[ns(  1)] (up, down, total) =   4.25236  1.33448  5.58684
     Atomic magnetic moment for atom   1 =   2.91788
     SPIN  1
     eigenvalues:
       0.475  0.786  0.996  0.997  0.997
     eigenvectors (columns):
      -0.170  0.383  0.900  0.118  0.002
       0.679  0.078  0.089  0.031  0.724
      -0.421 -0.676  0.156  0.394  0.432
      -0.046 -0.369  0.264 -0.885  0.088
       0.575 -0.504  0.296  0.215 -0.531
     occupation matrix ns (before diag.):
       0.950  0.054  0.017  0.026  0.091
       0.054  0.755  0.160  0.022 -0.195
       0.017  0.160  0.808 -0.063  0.054
       0.026  0.022 -0.063  0.967 -0.025
       0.091 -0.195  0.054 -0.025  0.771
     SPIN  2
     eigenvalues:
       0.161  0.232  0.238  0.317  0.387
     eigenvectors (columns):
      -0.474  0.380  0.451 -0.650  0.081
      -0.219  0.158 -0.642 -0.104  0.710
      -0.800  0.031 -0.214  0.404 -0.388
       0.271  0.909 -0.109  0.236 -0.182
      -0.121  0.062  0.572  0.591  0.553
     occupation matrix ns (before diag.):
       0.254  0.006 -0.054 -0.006 -0.028
       0.006  0.310 -0.058 -0.017  0.051
      -0.054 -0.058  0.224  0.034 -0.021
      -0.006 -0.017  0.034  0.237 -0.002
      -0.028  0.051 -0.021 -0.002  0.310

     Number of occupied Hubbard levels =    5.5868

     negative rho (up, down):  0.000E+00 3.156E-05

     HUBBARD ENERGY =    0.2442  (Ry)

     total cpu time spent up to now is     1469.2 secs

     total energy              =   -1427.02591105 Ry
     estimated scf accuracy    <       0.73837847 Ry

     total magnetization       =     7.35 Bohr mag/cell
     absolute magnetization    =     9.92 Bohr mag/cell
[tb_dev] Currently allocated     0.00E+00 Mbytes, locked:    0 /   0
[tb_pin] Currently allocated     0.00E+00 Mbytes, locked:    0 /   0

     iteration #  6     ecut=    90.00 Ry     beta= 0.30
     CG style diagonalization

---- Real-time Memory Report at c_bands before calling an iterative solver
         24298 MiB given to the printing process from OS
             0 MiB allocation reported by mallinfo(arena+hblkhd)
        474237 MiB available memory on the node where the printing process lives
     GPU memory used/free/total (MiB): 11362 / 53582 / 64944
------------------
     ethr =  3.69E-04,  avg # of iterations =  3.3

     =================== HUBBARD OCCUPATIONS ===================
     ------------------------ ATOM    1 ------------------------
     Tr[ns(  1)] (up, down, total) =   4.65992  1.62760  6.28752
     Atomic magnetic moment for atom   1 =   3.03232
     SPIN  1
     eigenvalues:
       0.664  0.996  0.997  0.997  1.006
     eigenvectors (columns):
       0.217  0.779  0.225  0.238  0.488
      -0.661  0.243 -0.156 -0.631  0.286
       0.326  0.496 -0.489 -0.288 -0.571
      -0.005  0.133  0.828 -0.341 -0.425
      -0.640  0.265 -0.018  0.589 -0.416
     occupation matrix ns (before diag.):
       0.983  0.049 -0.027 -0.002  0.044
       0.049  0.852  0.070 -0.002 -0.142
      -0.027  0.070  0.964  0.003  0.072
      -0.002 -0.002  0.003  0.998  0.000
       0.044 -0.142  0.072  0.000  0.862
     SPIN  2
     eigenvalues:
       0.193  0.289  0.332  0.374  0.440
     eigenvectors (columns):
      -0.440 -0.579  0.209 -0.651 -0.059
      -0.198  0.480 -0.350 -0.341 -0.701
      -0.849  0.219 -0.179  0.292  0.337
       0.130 -0.409 -0.892 -0.024  0.139
      -0.169 -0.469  0.079  0.612 -0.610
     occupation matrix ns (before diag.):
       0.309  0.014 -0.057 -0.002 -0.035
       0.014  0.375 -0.058  0.002  0.042
      -0.057 -0.058  0.245  0.024 -0.030
      -0.002  0.002  0.024  0.324 -0.015
      -0.035  0.042 -0.030 -0.015  0.375

     Number of occupied Hubbard levels =    6.2875

     negative rho (up, down):  0.000E+00 4.500E-05

     HUBBARD ENERGY =    0.2433  (Ry)

     total cpu time spent up to now is     1756.1 secs

     total energy              =   -1427.19962616 Ry
     estimated scf accuracy    <       0.55035679 Ry

     total magnetization       =     8.56 Bohr mag/cell
     absolute magnetization    =    10.42 Bohr mag/cell
[tb_dev] Currently allocated     0.00E+00 Mbytes, locked:    0 /   0
[tb_pin] Currently allocated     0.00E+00 Mbytes, locked:    0 /   0

     iteration #  7     ecut=    90.00 Ry     beta= 0.30
     CG style diagonalization

---- Real-time Memory Report at c_bands before calling an iterative solver
         24326 MiB given to the printing process from OS
             0 MiB allocation reported by mallinfo(arena+hblkhd)
        474166 MiB available memory on the node where the printing process lives
     GPU memory used/free/total (MiB): 11362 / 53582 / 64944
------------------
     ethr =  2.75E-04,  avg # of iterations =  3.1

     =================== HUBBARD OCCUPATIONS ===================
     ------------------------ ATOM    1 ------------------------
     Tr[ns(  1)] (up, down, total) =   4.70568  1.32715  6.03283
     Atomic magnetic moment for atom   1 =   3.37853
     SPIN  1
     eigenvalues:
       0.720  0.994  0.997  0.997  0.998
     eigenvectors (columns):
      -0.224  0.129  0.636 -0.385  0.617
       0.657  0.108 -0.094  0.447  0.591
      -0.308  0.892 -0.314  0.074  0.072
       0.018  0.230  0.683  0.574 -0.388
       0.651  0.350  0.146 -0.563 -0.339
     occupation matrix ns (before diag.):
       0.983  0.041 -0.019  0.001  0.040
       0.041  0.878  0.056 -0.004 -0.119
      -0.019  0.056  0.968  0.001  0.054
       0.001 -0.004  0.001  0.997 -0.003
       0.040 -0.119  0.054 -0.003  0.879
     SPIN  2
     eigenvalues:
       0.148  0.209  0.264  0.316  0.390
     eigenvectors (columns):
       0.478  0.550  0.021 -0.682 -0.056
       0.270 -0.531 -0.325 -0.305  0.668
       0.807 -0.180 -0.118  0.443 -0.324
      -0.159  0.327 -0.920  0.130 -0.064
       0.148  0.525  0.182  0.478  0.664
     occupation matrix ns (before diag.):
       0.245  0.007 -0.053 -0.005 -0.046
       0.007  0.301 -0.065  0.007  0.059
      -0.053 -0.065  0.210  0.024 -0.025
      -0.005  0.007  0.024  0.257 -0.009
      -0.046  0.059 -0.025 -0.009  0.314

     Number of occupied Hubbard levels =    6.0328

     negative rho (up, down):  0.000E+00 5.918E-05

     HUBBARD ENERGY =    0.2329  (Ry)

     total cpu time spent up to now is     2020.1 secs

     total energy              =   -1427.31501305 Ry
     estimated scf accuracy    <       0.26653336 Ry

     total magnetization       =     8.77 Bohr mag/cell
     absolute magnetization    =    10.49 Bohr mag/cell
[tb_dev] Currently allocated     0.00E+00 Mbytes, locked:    0 /   0
[tb_pin] Currently allocated     0.00E+00 Mbytes, locked:    0 /   0

     iteration #  8     ecut=    90.00 Ry     beta= 0.30
     CG style diagonalization

---- Real-time Memory Report at c_bands before calling an iterative solver
         24355 MiB given to the printing process from OS
             0 MiB allocation reported by mallinfo(arena+hblkhd)
        474103 MiB available memory on the node where the printing process lives
     GPU memory used/free/total (MiB): 11362 / 53582 / 64944
------------------
     c_bands:  1 eigenvalues not converged
     c_bands:  1 eigenvalues not converged
     c_bands:  1 eigenvalues not converged
     c_bands:  1 eigenvalues not converged
     c_bands:  1 eigenvalues not converged
     c_bands:  1 eigenvalues not converged
     c_bands:  1 eigenvalues not converged
     c_bands:  1 eigenvalues not converged
     c_bands:  1 eigenvalues not converged
     c_bands:  1 eigenvalues not converged
     c_bands:  1 eigenvalues not converged
     c_bands:  1 eigenvalues not converged
     c_bands:  1 eigenvalues not converged
     c_bands:  1 eigenvalues not converged
     c_bands:  1 eigenvalues not converged
     c_bands:  1 eigenvalues not converged
     c_bands:  1 eigenvalues not converged
     c_bands:  1 eigenvalues not converged
     c_bands:  1 eigenvalues not converged
     c_bands:  1 eigenvalues not converged
     c_bands:  1 eigenvalues not converged
     c_bands:  1 eigenvalues not converged
     c_bands:  1 eigenvalues not converged
     c_bands:  1 eigenvalues not converged
     c_bands:  1 eigenvalues not converged
     c_bands:  1 eigenvalues not converged
     c_bands:  1 eigenvalues not converged
     c_bands:  1 eigenvalues not converged
     c_bands:  1 eigenvalues not converged
     c_bands:  1 eigenvalues not converged
     c_bands:  1 eigenvalues not converged
     c_bands:  1 eigenvalues not converged
     c_bands:  1 eigenvalues not converged
     c_bands:  1 eigenvalues not converged
     c_bands:  1 eigenvalues not converged
     c_bands:  1 eigenvalues not converged
     c_bands:  1 eigenvalues not converged
     c_bands:  1 eigenvalues not converged
     c_bands:  1 eigenvalues not converged
     c_bands:  1 eigenvalues not converged
     c_bands:  1 eigenvalues not converged
     c_bands:  1 eigenvalues not converged
     c_bands:  1 eigenvalues not converged
     c_bands:  1 eigenvalues not converged
     c_bands:  1 eigenvalues not converged
     c_bands:  1 eigenvalues not converged
     c_bands:  1 eigenvalues not converged
     c_bands:  1 eigenvalues not converged
     c_bands:  1 eigenvalues not converged
     c_bands:  2 eigenvalues not converged
     c_bands:  1 eigenvalues not converged
     c_bands:  1 eigenvalues not converged
     c_bands:  1 eigenvalues not converged
     c_bands:  1 eigenvalues not converged
     c_bands:  1 eigenvalues not converged
     c_bands:  1 eigenvalues not converged
     c_bands:  1 eigenvalues not converged
     c_bands:  1 eigenvalues not converged
     c_bands:  1 eigenvalues not converged
     c_bands:  1 eigenvalues not converged
     c_bands:  1 eigenvalues not converged
     c_bands:  1 eigenvalues not converged
     c_bands:  1 eigenvalues not converged
     c_bands:  1 eigenvalues not converged
     c_bands:  1 eigenvalues not converged
     c_bands:  1 eigenvalues not converged
     c_bands:  1 eigenvalues not converged
     c_bands:  1 eigenvalues not converged
     c_bands:  1 eigenvalues not converged
     c_bands:  1 eigenvalues not converged
     ethr =  1.33E-04,  avg # of iterations =  3.3

     =================== HUBBARD OCCUPATIONS ===================
     ------------------------ ATOM    1 ------------------------
     Tr[ns(  1)] (up, down, total) =   4.65076  1.07770  5.72846
     Atomic magnetic moment for atom   1 =   3.57306
     SPIN  1
     eigenvalues:
       0.668  0.991  0.997  0.997  0.998
     eigenvectors (columns):
      -0.206 -0.112  0.776  0.393  0.434
       0.662 -0.014 -0.043 -0.319  0.677
      -0.320  0.858 -0.189  0.063  0.350
       0.003  0.299  0.568 -0.708 -0.295
       0.646  0.403  0.195  0.488 -0.380
     occupation matrix ns (before diag.):
       0.983  0.045 -0.021  0.000  0.044
       0.045  0.853  0.070 -0.001 -0.140
      -0.021  0.070  0.959 -0.001  0.066
       0.000 -0.001 -0.001  0.996 -0.001
       0.044 -0.140  0.066 -0.001  0.859
     SPIN  2
     eigenvalues:
       0.117  0.155  0.189  0.261  0.356
     eigenvectors (columns):
       0.525  0.549 -0.186 -0.613 -0.114
       0.302 -0.543 -0.289 -0.266  0.678
       0.773 -0.223  0.040  0.507 -0.307
      -0.143  0.161 -0.921  0.316 -0.076
       0.125  0.573  0.179  0.444  0.654
     occupation matrix ns (before diag.):
       0.188 -0.002 -0.042 -0.010 -0.048
      -0.002  0.254 -0.065 -0.009  0.073
      -0.042 -0.065  0.179  0.025 -0.020
      -0.010 -0.009  0.025  0.195 -0.000
      -0.048  0.073 -0.020 -0.000  0.262

     Number of occupied Hubbard levels =    5.7285

     negative rho (up, down):  0.000E+00 7.225E-05

     HUBBARD ENERGY =    0.2171  (Ry)

     total cpu time spent up to now is     2310.5 secs

     total energy              =   -1427.36454605 Ry
     estimated scf accuracy    <       0.32718487 Ry

     total magnetization       =     8.27 Bohr mag/cell
     absolute magnetization    =     9.84 Bohr mag/cell
[tb_dev] Currently allocated     0.00E+00 Mbytes, locked:    0 /   0
[tb_pin] Currently allocated     0.00E+00 Mbytes, locked:    0 /   0

     iteration #  9     ecut=    90.00 Ry     beta= 0.30
     CG style diagonalization

---- Real-time Memory Report at c_bands before calling an iterative solver
         24378 MiB given to the printing process from OS
             0 MiB allocation reported by mallinfo(arena+hblkhd)
        474051 MiB available memory on the node where the printing process lives
     GPU memory used/free/total (MiB): 11362 / 53582 / 64944
------------------
     c_bands:  1 eigenvalues not converged
     ethr =  1.33E-04,  avg # of iterations =  3.0

     =================== HUBBARD OCCUPATIONS ===================
     ------------------------ ATOM    1 ------------------------
     Tr[ns(  1)] (up, down, total) =   4.72816  1.02790  5.75606
     Atomic magnetic moment for atom   1 =   3.70026
     SPIN  1
     eigenvalues:
       0.746  0.991  0.996  0.997  0.998
     eigenvectors (columns):
      -0.217 -0.097  0.789  0.322  0.467
       0.657 -0.035 -0.065 -0.361  0.657
      -0.294  0.874 -0.185  0.028  0.338
       0.016  0.274  0.536 -0.720 -0.344
       0.659  0.387  0.230  0.496 -0.343
     occupation matrix ns (before diag.):
       0.985  0.036 -0.015  0.001  0.036
       0.036  0.889  0.049 -0.003 -0.109
      -0.015  0.049  0.971 -0.000  0.047
       0.001 -0.003 -0.000  0.996 -0.003
       0.036 -0.109  0.047 -0.003  0.887
     SPIN  2
     eigenvalues:
       0.111  0.147  0.181  0.249  0.340
     eigenvectors (columns):
       0.508  0.574  0.161  0.604 -0.145
       0.335 -0.530  0.306  0.297  0.652
       0.766 -0.177  0.004 -0.546 -0.291
      -0.183  0.194  0.919 -0.287 -0.049
       0.101  0.565 -0.191 -0.408  0.684
     occupation matrix ns (before diag.):
       0.180 -0.004 -0.040 -0.008 -0.047
      -0.004  0.237 -0.063 -0.003  0.071
      -0.040 -0.063  0.173  0.024 -0.018
      -0.008 -0.003  0.024  0.183  0.000
      -0.047  0.071 -0.018  0.000  0.255

     Number of occupied Hubbard levels =    5.7561

     negative rho (up, down):  0.000E+00 1.130E-04

     HUBBARD ENERGY =    0.1879  (Ry)

     total cpu time spent up to now is     2569.1 secs

     total energy              =   -1427.43877189 Ry
     estimated scf accuracy    <       0.13998752 Ry

     total magnetization       =     8.55 Bohr mag/cell
     absolute magnetization    =     9.93 Bohr mag/cell
[tb_dev] Currently allocated     0.00E+00 Mbytes, locked:    0 /   0
[tb_pin] Currently allocated     0.00E+00 Mbytes, locked:    0 /   0

     iteration # 10     ecut=    90.00 Ry     beta= 0.30
     CG style diagonalization

---- Real-time Memory Report at c_bands before calling an iterative solver
         24410 MiB given to the printing process from OS
             0 MiB allocation reported by mallinfo(arena+hblkhd)
        473985 MiB available memory on the node where the printing process lives
     GPU memory used/free/total (MiB): 11362 / 53582 / 64944
------------------
     c_bands:  1 eigenvalues not converged
     c_bands:  1 eigenvalues not converged
     c_bands:  1 eigenvalues not converged
     c_bands:  1 eigenvalues not converged
     c_bands:  1 eigenvalues not converged
     c_bands:  1 eigenvalues not converged
     c_bands:  1 eigenvalues not converged
     c_bands:  1 eigenvalues not converged
     c_bands:  1 eigenvalues not converged
     c_bands:  1 eigenvalues not converged
     c_bands:  1 eigenvalues not converged
     c_bands:  1 eigenvalues not converged
     ethr =  7.00E-05,  avg # of iterations =  3.1

     =================== HUBBARD OCCUPATIONS ===================
     ------------------------ ATOM    1 ------------------------
     Tr[ns(  1)] (up, down, total) =   4.82287  0.99106  5.81393
     Atomic magnetic moment for atom   1 =   3.83181
     SPIN  1
     eigenvalues:
       0.841  0.991  0.996  0.997  0.997
     eigenvectors (columns):
       0.199 -0.098  0.769  0.415 -0.433
      -0.662 -0.026 -0.049 -0.307 -0.681
       0.299  0.872 -0.185  0.055 -0.335
      -0.003  0.275  0.578 -0.718  0.275
      -0.658  0.392  0.195  0.464  0.401
     occupation matrix ns (before diag.):
       0.990  0.021 -0.009  0.000  0.020
       0.021  0.929  0.031 -0.000 -0.068
      -0.009  0.031  0.979 -0.001  0.029
       0.000 -0.000 -0.001  0.996 -0.001
       0.020 -0.068  0.029 -0.001  0.929
     SPIN  2
     eigenvalues:
       0.106  0.139  0.169  0.238  0.339
     eigenvectors (columns):
       0.514  0.570  0.198  0.591 -0.151
       0.361 -0.542  0.276  0.282  0.648
       0.758 -0.160 -0.053 -0.561 -0.288
      -0.160  0.141  0.923 -0.318 -0.049
       0.079  0.580 -0.174 -0.394  0.686
     occupation matrix ns (before diag.):
       0.171 -0.008 -0.037 -0.009 -0.046
      -0.008  0.229 -0.063 -0.006  0.076
      -0.037 -0.063  0.168  0.023 -0.019
      -0.009 -0.006  0.023  0.174  0.001
      -0.046  0.076 -0.019  0.001  0.249

     Number of occupied Hubbard levels =    5.8139

     negative rho (up, down):  0.000E+00 1.596E-04

     HUBBARD ENERGY =    0.1733  (Ry)

     total cpu time spent up to now is     2841.2 secs

     total energy              =   -1427.45238381 Ry
     estimated scf accuracy    <       0.07857898 Ry

     total magnetization       =     8.98 Bohr mag/cell
     absolute magnetization    =    10.02 Bohr mag/cell
[tb_dev] Currently allocated     0.00E+00 Mbytes, locked:    0 /   0
[tb_pin] Currently allocated     0.00E+00 Mbytes, locked:    0 /   0

     iteration # 11     ecut=    90.00 Ry     beta= 0.30
     CG style diagonalization

---- Real-time Memory Report at c_bands before calling an iterative solver
         24410 MiB given to the printing process from OS
             0 MiB allocation reported by mallinfo(arena+hblkhd)
        473953 MiB available memory on the node where the printing process lives
     GPU memory used/free/total (MiB): 11362 / 53582 / 64944
------------------
     c_bands:  2 eigenvalues not converged
     c_bands:  1 eigenvalues not converged
     c_bands:  1 eigenvalues not converged
     c_bands:  1 eigenvalues not converged
     c_bands:  2 eigenvalues not converged
     c_bands:  1 eigenvalues not converged
     c_bands:  1 eigenvalues not converged
     c_bands:  1 eigenvalues not converged
     c_bands:  1 eigenvalues not converged
     c_bands:  1 eigenvalues not converged
     c_bands:  1 eigenvalues not converged
     c_bands:  1 eigenvalues not converged
     c_bands:  2 eigenvalues not converged
     c_bands:  1 eigenvalues not converged
     c_bands:  2 eigenvalues not converged
     c_bands:  1 eigenvalues not converged
     c_bands:  1 eigenvalues not converged
     c_bands:  1 eigenvalues not converged
     c_bands:  1 eigenvalues not converged
     c_bands:  1 eigenvalues not converged
     c_bands:  1 eigenvalues not converged
     c_bands:  1 eigenvalues not converged
     c_bands:  1 eigenvalues not converged
     c_bands:  1 eigenvalues not converged
     c_bands:  1 eigenvalues not converged
     c_bands:  1 eigenvalues not converged
     c_bands:  1 eigenvalues not converged
     c_bands:  1 eigenvalues not converged
     ethr =  3.93E-05,  avg # of iterations =  3.2

     =================== HUBBARD OCCUPATIONS ===================
     ------------------------ ATOM    1 ------------------------
     Tr[ns(  1)] (up, down, total) =   4.87547  0.95916  5.83462
     Atomic magnetic moment for atom   1 =   3.91631
     SPIN  1
     eigenvalues:
       0.894  0.991  0.996  0.997  0.997
     eigenvectors (columns):
       0.197 -0.122  0.810  0.388 -0.373
      -0.660 -0.052 -0.033 -0.280 -0.695
       0.296  0.864 -0.150  0.080 -0.371
      -0.010  0.280  0.529 -0.755  0.268
      -0.662  0.397  0.199  0.441  0.412
     occupation matrix ns (before diag.):
       0.992  0.013 -0.005  0.000  0.013
       0.013  0.952  0.020 -0.001 -0.045
      -0.005  0.020  0.984 -0.001  0.018
       0.000 -0.001 -0.001  0.996 -0.001
       0.013 -0.045  0.018 -0.001  0.951
     SPIN  2
     eigenvalues:
       0.102  0.131  0.162  0.233  0.331
     eigenvectors (columns):
      -0.516 -0.574 -0.197  0.581 -0.168
      -0.367  0.537 -0.277  0.297  0.642
      -0.751  0.162  0.042 -0.574 -0.281
       0.170 -0.144 -0.923 -0.313 -0.036
      -0.081 -0.579  0.179 -0.383  0.692
     occupation matrix ns (before diag.):
       0.165 -0.008 -0.036 -0.009 -0.048
      -0.008  0.221 -0.062 -0.004  0.075
      -0.036 -0.062  0.164  0.023 -0.018
      -0.009 -0.004  0.023  0.167  0.003
      -0.048  0.075 -0.018  0.003  0.243

     Number of occupied Hubbard levels =    5.8346

     negative rho (up, down):  0.000E+00 1.837E-04

     HUBBARD ENERGY =    0.1645  (Ry)

     total cpu time spent up to now is     3119.2 secs

     total energy              =   -1427.46496462 Ry
     estimated scf accuracy    <       0.04563768 Ry

     total magnetization       =     9.38 Bohr mag/cell
     absolute magnetization    =    10.19 Bohr mag/cell
[tb_dev] Currently allocated     0.00E+00 Mbytes, locked:    0 /   0
[tb_pin] Currently allocated     0.00E+00 Mbytes, locked:    0 /   0

     iteration # 12     ecut=    90.00 Ry     beta= 0.30
     CG style diagonalization

---- Real-time Memory Report at c_bands before calling an iterative solver
         24422 MiB given to the printing process from OS
             0 MiB allocation reported by mallinfo(arena+hblkhd)
        473908 MiB available memory on the node where the printing process lives
     GPU memory used/free/total (MiB): 11362 / 53582 / 64944
------------------
     c_bands:  1 eigenvalues not converged
     c_bands:  1 eigenvalues not converged
     c_bands:  1 eigenvalues not converged
     c_bands:  1 eigenvalues not converged
     c_bands:  1 eigenvalues not converged
     c_bands:  1 eigenvalues not converged
     c_bands:  1 eigenvalues not converged
     c_bands:  1 eigenvalues not converged
     c_bands:  1 eigenvalues not converged
     c_bands:  1 eigenvalues not converged
     c_bands:  1 eigenvalues not converged
     c_bands:  1 eigenvalues not converged
     c_bands:  1 eigenvalues not converged
     c_bands:  1 eigenvalues not converged
     c_bands:  1 eigenvalues not converged
     c_bands:  2 eigenvalues not converged
     c_bands:  1 eigenvalues not converged
     c_bands:  1 eigenvalues not converged
     c_bands:  1 eigenvalues not converged
     c_bands:  1 eigenvalues not converged
     c_bands:  1 eigenvalues not converged
     c_bands:  1 eigenvalues not converged
     c_bands:  1 eigenvalues not converged
     c_bands:  1 eigenvalues not converged
     c_bands:  1 eigenvalues not converged
     c_bands:  2 eigenvalues not converged
     c_bands:  1 eigenvalues not converged
     c_bands:  1 eigenvalues not converged
     c_bands:  1 eigenvalues not converged
     c_bands:  1 eigenvalues not converged
     c_bands:  1 eigenvalues not converged
     c_bands:  1 eigenvalues not converged
     c_bands:  1 eigenvalues not converged
     c_bands:  1 eigenvalues not converged
     c_bands:  1 eigenvalues not converged
     c_bands:  1 eigenvalues not converged
     c_bands:  1 eigenvalues not converged
     c_bands:  2 eigenvalues not converged
     c_bands:  1 eigenvalues not converged
     c_bands:  1 eigenvalues not converged
     c_bands:  1 eigenvalues not converged
     c_bands:  1 eigenvalues not converged
     c_bands:  1 eigenvalues not converged
     c_bands:  1 eigenvalues not converged
     c_bands:  1 eigenvalues not converged
     c_bands:  1 eigenvalues not converged
     c_bands:  1 eigenvalues not converged
     c_bands:  1 eigenvalues not converged
     c_bands:  2 eigenvalues not converged
     c_bands:  1 eigenvalues not converged
     c_bands:  1 eigenvalues not converged
     c_bands:  1 eigenvalues not converged
     c_bands:  1 eigenvalues not converged
     c_bands:  1 eigenvalues not converged
     c_bands:  1 eigenvalues not converged
     c_bands:  1 eigenvalues not converged
     c_bands:  1 eigenvalues not converged
     c_bands:  1 eigenvalues not converged
     c_bands:  2 eigenvalues not converged
     c_bands:  1 eigenvalues not converged
     c_bands:  2 eigenvalues not converged
     c_bands:  2 eigenvalues not converged
     c_bands:  2 eigenvalues not converged
     c_bands:  2 eigenvalues not converged
     c_bands:  1 eigenvalues not converged
     c_bands:  1 eigenvalues not converged
     c_bands:  1 eigenvalues not converged
     c_bands:  1 eigenvalues not converged
     c_bands:  1 eigenvalues not converged
     c_bands:  1 eigenvalues not converged
     c_bands:  1 eigenvalues not converged
     c_bands:  1 eigenvalues not converged
     c_bands:  1 eigenvalues not converged
     c_bands:  1 eigenvalues not converged
     c_bands:  1 eigenvalues not converged
     c_bands:  1 eigenvalues not converged
     c_bands:  1 eigenvalues not converged
     ethr =  2.28E-05,  avg # of iterations =  3.5

     =================== HUBBARD OCCUPATIONS ===================
     ------------------------ ATOM    1 ------------------------
     Tr[ns(  1)] (up, down, total) =   4.89123  0.94015  5.83138
     Atomic magnetic moment for atom   1 =   3.95107
     SPIN  1
     eigenvalues:
       0.911  0.991  0.996  0.996  0.997
     eigenvectors (columns):
      -0.177  0.144  0.794  0.463 -0.320
       0.666  0.035  0.035 -0.290 -0.686
      -0.314 -0.851 -0.125  0.088 -0.392
      -0.009 -0.293  0.579 -0.699  0.300
       0.653 -0.410  0.128  0.453  0.428
     occupation matrix ns (before diag.):
       0.993  0.010 -0.004 -0.000  0.010
       0.010  0.959  0.018  0.000 -0.037
      -0.004  0.018  0.984 -0.002  0.016
      -0.000  0.000 -0.002  0.996 -0.000
       0.010 -0.037  0.016 -0.000  0.959
     SPIN  2
     eigenvalues:
       0.100  0.129  0.156  0.232  0.323
     eigenvectors (columns):
      -0.530 -0.575 -0.214  0.559 -0.174
      -0.373  0.533 -0.281  0.288  0.644
      -0.739  0.172  0.067 -0.585 -0.280
       0.169 -0.135 -0.915 -0.340 -0.038
      -0.076 -0.581  0.186 -0.384  0.689
     occupation matrix ns (before diag.):
       0.160 -0.009 -0.036 -0.010 -0.048
      -0.009  0.216 -0.061 -0.006  0.072
      -0.036 -0.061  0.164  0.024 -0.016
      -0.010 -0.006  0.024  0.163  0.004
      -0.048  0.072 -0.016  0.004  0.237

     Number of occupied Hubbard levels =    5.8314

     negative rho (up, down):  0.000E+00 2.104E-04

     HUBBARD ENERGY =    0.1563  (Ry)

     total cpu time spent up to now is     3432.4 secs

     total energy              =   -1427.47205562 Ry
     estimated scf accuracy    <       0.02808625 Ry

     total magnetization       =     9.27 Bohr mag/cell
     absolute magnetization    =     9.92 Bohr mag/cell
[tb_dev] Currently allocated     0.00E+00 Mbytes, locked:    0 /   0
[tb_pin] Currently allocated     0.00E+00 Mbytes, locked:    0 /   0

     iteration # 13     ecut=    90.00 Ry     beta= 0.30
     CG style diagonalization

---- Real-time Memory Report at c_bands before calling an iterative solver
         24422 MiB given to the printing process from OS
             0 MiB allocation reported by mallinfo(arena+hblkhd)
        473870 MiB available memory on the node where the printing process lives
     GPU memory used/free/total (MiB): 11362 / 53582 / 64944
------------------
     c_bands:  2 eigenvalues not converged
     c_bands:  1 eigenvalues not converged
     c_bands:  1 eigenvalues not converged
     c_bands:  2 eigenvalues not converged
     c_bands:  1 eigenvalues not converged
     c_bands:  1 eigenvalues not converged
     c_bands:  1 eigenvalues not converged
     c_bands:  1 eigenvalues not converged
     c_bands:  2 eigenvalues not converged
     c_bands:  1 eigenvalues not converged
     c_bands:  1 eigenvalues not converged
     c_bands:  1 eigenvalues not converged
     c_bands:  1 eigenvalues not converged
     c_bands:  1 eigenvalues not converged
     c_bands:  1 eigenvalues not converged
     c_bands:  1 eigenvalues not converged
     c_bands:  1 eigenvalues not converged
     c_bands:  1 eigenvalues not converged
     c_bands:  1 eigenvalues not converged
     c_bands:  1 eigenvalues not converged
     c_bands:  1 eigenvalues not converged
     c_bands:  1 eigenvalues not converged
     c_bands:  1 eigenvalues not converged
     c_bands:  1 eigenvalues not converged
     c_bands:  1 eigenvalues not converged
     c_bands:  1 eigenvalues not converged
     c_bands:  2 eigenvalues not converged
     c_bands:  1 eigenvalues not converged
     c_bands:  1 eigenvalues not converged
     c_bands:  2 eigenvalues not converged
     c_bands:  1 eigenvalues not converged
     c_bands:  1 eigenvalues not converged
     c_bands:  1 eigenvalues not converged
     c_bands:  1 eigenvalues not converged
     c_bands:  1 eigenvalues not converged
     c_bands:  1 eigenvalues not converged
     c_bands:  1 eigenvalues not converged
     c_bands:  1 eigenvalues not converged
     c_bands:  1 eigenvalues not converged
     c_bands:  1 eigenvalues not converged
     c_bands:  2 eigenvalues not converged
     c_bands:  1 eigenvalues not converged
     c_bands:  1 eigenvalues not converged
     c_bands:  2 eigenvalues not converged
     c_bands:  1 eigenvalues not converged
     c_bands:  1 eigenvalues not converged
     c_bands:  1 eigenvalues not converged
     c_bands:  1 eigenvalues not converged
     c_bands:  1 eigenvalues not converged
     c_bands:  1 eigenvalues not converged
     c_bands:  1 eigenvalues not converged
     c_bands:  1 eigenvalues not converged
     c_bands:  1 eigenvalues not converged
     c_bands:  1 eigenvalues not converged
     c_bands:  1 eigenvalues not converged
     c_bands:  1 eigenvalues not converged
     c_bands:  1 eigenvalues not converged
     c_bands:  1 eigenvalues not converged
     c_bands:  1 eigenvalues not converged
     c_bands:  1 eigenvalues not converged
     c_bands:  1 eigenvalues not converged
     ethr =  1.40E-05,  avg # of iterations =  3.2

     =================== HUBBARD OCCUPATIONS ===================
     ------------------------ ATOM    1 ------------------------
     Tr[ns(  1)] (up, down, total) =   4.89243  0.90499  5.79742
     Atomic magnetic moment for atom   1 =   3.98744
     SPIN  1
     eigenvalues:
       0.912  0.991  0.996  0.996  0.997
     eigenvectors (columns):
      -0.180  0.134  0.815  0.409 -0.344
       0.665  0.038  0.017 -0.319 -0.674
      -0.307 -0.858 -0.124  0.069 -0.387
      -0.007 -0.283  0.544 -0.718  0.330
       0.656 -0.406  0.155  0.460  0.411
     occupation matrix ns (before diag.):
       0.993  0.010 -0.004 -0.000  0.010
       0.010  0.959  0.018  0.000 -0.037
      -0.004  0.018  0.985 -0.001  0.015
      -0.000  0.000 -0.001  0.996 -0.000
       0.010 -0.037  0.015 -0.000  0.959
     SPIN  2
     eigenvalues:
       0.096  0.123  0.148  0.226  0.312
     eigenvectors (columns):
      -0.529 -0.582 -0.221  0.547 -0.184
      -0.381  0.527 -0.283  0.293  0.641
      -0.733  0.170  0.063 -0.596 -0.275
       0.182 -0.130 -0.912 -0.341 -0.032
      -0.071 -0.581  0.186 -0.379  0.692
     occupation matrix ns (before diag.):
       0.154 -0.010 -0.035 -0.010 -0.047
      -0.010  0.208 -0.059 -0.006  0.070
      -0.035 -0.059  0.159  0.025 -0.014
      -0.010 -0.006  0.025  0.155  0.005
      -0.047  0.070 -0.014  0.005  0.229

     Number of occupied Hubbard levels =    5.7974

     negative rho (up, down):  0.000E+00 2.755E-04

     HUBBARD ENERGY =    0.1395  (Ry)

     total cpu time spent up to now is     3710.1 secs

     total energy              =   -1427.47962756 Ry
     estimated scf accuracy    <       0.01032174 Ry

     total magnetization       =     9.30 Bohr mag/cell
     absolute magnetization    =     9.91 Bohr mag/cell
[tb_dev] Currently allocated     0.00E+00 Mbytes, locked:    0 /   0
[tb_pin] Currently allocated     0.00E+00 Mbytes, locked:    0 /   0

     iteration # 14     ecut=    90.00 Ry     beta= 0.30
     CG style diagonalization

---- Real-time Memory Report at c_bands before calling an iterative solver
         24422 MiB given to the printing process from OS
             0 MiB allocation reported by mallinfo(arena+hblkhd)
        473844 MiB available memory on the node where the printing process lives
     GPU memory used/free/total (MiB): 11362 / 53582 / 64944
------------------
     c_bands:  1 eigenvalues not converged
     c_bands:  1 eigenvalues not converged
     c_bands:  3 eigenvalues not converged
     c_bands:  1 eigenvalues not converged
     c_bands:  1 eigenvalues not converged
     c_bands:  1 eigenvalues not converged
     c_bands:  2 eigenvalues not converged
     c_bands:  1 eigenvalues not converged
     c_bands:  2 eigenvalues not converged
     c_bands:  1 eigenvalues not converged
     c_bands:  1 eigenvalues not converged
     c_bands:  1 eigenvalues not converged
     c_bands:  2 eigenvalues not converged
     c_bands:  2 eigenvalues not converged
     c_bands:  1 eigenvalues not converged
     c_bands:  2 eigenvalues not converged
     c_bands:  1 eigenvalues not converged
     c_bands:  2 eigenvalues not converged
     c_bands:  2 eigenvalues not converged
     c_bands:  1 eigenvalues not converged
     c_bands:  1 eigenvalues not converged
     c_bands:  1 eigenvalues not converged
     c_bands:  1 eigenvalues not converged
     c_bands:  1 eigenvalues not converged
     c_bands:  1 eigenvalues not converged
     c_bands:  1 eigenvalues not converged
     c_bands:  2 eigenvalues not converged
     c_bands:  1 eigenvalues not converged
     c_bands:  2 eigenvalues not converged
     c_bands:  1 eigenvalues not converged
     c_bands:  1 eigenvalues not converged
     c_bands:  1 eigenvalues not converged
     c_bands:  1 eigenvalues not converged
     c_bands:  1 eigenvalues not converged
     c_bands:  1 eigenvalues not converged
     c_bands:  1 eigenvalues not converged
     c_bands:  2 eigenvalues not converged
     c_bands:  1 eigenvalues not converged
     c_bands:  1 eigenvalues not converged
     c_bands:  1 eigenvalues not converged
     c_bands:  1 eigenvalues not converged
     c_bands:  1 eigenvalues not converged
     c_bands:  2 eigenvalues not converged
     c_bands:  1 eigenvalues not converged
     c_bands:  1 eigenvalues not converged
     c_bands:  1 eigenvalues not converged
     c_bands:  1 eigenvalues not converged
     c_bands:  1 eigenvalues not converged
     c_bands:  1 eigenvalues not converged
     c_bands:  1 eigenvalues not converged
     c_bands:  1 eigenvalues not converged
     c_bands:  1 eigenvalues not converged
     c_bands:  2 eigenvalues not converged
     c_bands:  1 eigenvalues not converged
     c_bands:  1 eigenvalues not converged
     c_bands:  1 eigenvalues not converged
     c_bands:  1 eigenvalues not converged
     c_bands:  1 eigenvalues not converged
     c_bands:  1 eigenvalues not converged
     c_bands:  1 eigenvalues not converged
     c_bands:  1 eigenvalues not converged
     c_bands:  1 eigenvalues not converged
     c_bands:  1 eigenvalues not converged
[...]
      -0.044  0.056 -0.006  0.010  0.200

     Number of occupied Hubbard levels =    5.7085

     negative rho (up, down):  0.000E+00 3.282E-04

     HUBBARD ENERGY =    0.1207  (Ry)

     total cpu time spent up to now is    73126.0 secs

     total energy              =   -1427.48590320 Ry
     estimated scf accuracy    <       0.00087832 Ry

     total magnetization       =     9.08 Bohr mag/cell
     absolute magnetization    =     9.73 Bohr mag/cell
[tb_dev] Currently allocated     0.00E+00 Mbytes, locked:    0 /   0
[tb_pin] Currently allocated     0.00E+00 Mbytes, locked:    0 /   0

     iteration #181     ecut=    90.00 Ry     beta= 0.30
     CG style diagonalization

---- Real-time Memory Report at c_bands before calling an iterative solver
         24433 MiB given to the printing process from OS
             0 MiB allocation reported by mallinfo(arena+hblkhd)
        461022 MiB available memory on the node where the printing process lives
     GPU memory used/free/total (MiB): 11362 / 53582 / 64944
------------------
     ethr =  1.17E-08,  avg # of iterations =  3.7

     =================== HUBBARD OCCUPATIONS ===================
     ------------------------ ATOM    1 ------------------------
     Tr[ns(  1)] (up, down, total) =   4.91351  0.79478  5.70829
     Atomic magnetic moment for atom   1 =   4.11873
     SPIN  1
     eigenvalues:
       0.933  0.991  0.996  0.996  0.997
     eigenvectors (columns):
      -0.161 -0.149 -0.825  0.402 -0.330
       0.672 -0.023 -0.032 -0.342 -0.656
      -0.320  0.849  0.104  0.071 -0.400
      -0.027  0.284 -0.535 -0.709  0.359
       0.648  0.418 -0.143  0.461  0.415
     occupation matrix ns (before diag.):
       0.994  0.007 -0.003 -0.000  0.007
       0.007  0.968  0.014  0.001 -0.028
      -0.003  0.014  0.986 -0.002  0.011
      -0.000  0.001 -0.002  0.996  0.001
       0.007 -0.028  0.011  0.001  0.969
     SPIN  2
     eigenvalues:
       0.087  0.110  0.124  0.209  0.265
     eigenvectors (columns):
      -0.548 -0.605 -0.221  0.478 -0.239
      -0.418  0.497 -0.308  0.316  0.619
      -0.695  0.183  0.088 -0.646 -0.242
       0.197 -0.149 -0.893 -0.376 -0.000
      -0.057 -0.576  0.225 -0.336  0.708
     occupation matrix ns (before diag.):
       0.135 -0.013 -0.031 -0.013 -0.043
      -0.013  0.177 -0.051 -0.006  0.056
      -0.031 -0.051  0.149  0.026 -0.006
      -0.013 -0.006  0.026  0.134  0.010
      -0.043  0.056 -0.006  0.010  0.200

     Number of occupied Hubbard levels =    5.7083

     negative rho (up, down):  0.000E+00 3.270E-04

     HUBBARD ENERGY =    0.1211  (Ry)

     total cpu time spent up to now is    73462.4 secs

     total energy              =   -1427.48598826 Ry
     estimated scf accuracy    <       0.00089331 Ry

     total magnetization       =     9.15 Bohr mag/cell
     absolute magnetization    =     9.75 Bohr mag/cell
[tb_dev] Currently allocated     0.00E+00 Mbytes, locked:    0 /   0
[tb_pin] Currently allocated     0.00E+00 Mbytes, locked:    0 /   0

     iteration #182     ecut=    90.00 Ry     beta= 0.30
     CG style diagonalization

---- Real-time Memory Report at c_bands before calling an iterative solver
         24433 MiB given to the printing process from OS
             0 MiB allocation reported by mallinfo(arena+hblkhd)
        460867 MiB available memory on the node where the printing process lives
     GPU memory used/free/total (MiB): 11362 / 53582 / 64944
------------------
     ethr =  1.17E-08,  avg # of iterations =  3.9

     =================== HUBBARD OCCUPATIONS ===================
     ------------------------ ATOM    1 ------------------------
     Tr[ns(  1)] (up, down, total) =   4.91269  0.79643  5.70912
     Atomic magnetic moment for atom   1 =   4.11626
     SPIN  1
     eigenvalues:
       0.932  0.991  0.996  0.996  0.997
     eigenvectors (columns):
      -0.155 -0.148 -0.821  0.416 -0.327
       0.671 -0.021 -0.036 -0.344 -0.656
      -0.324  0.848  0.103  0.070 -0.401
      -0.028  0.284 -0.544 -0.702  0.360
       0.648  0.423 -0.131  0.460  0.416
     occupation matrix ns (before diag.):
       0.994  0.007 -0.002 -0.000  0.007
       0.007  0.968  0.014  0.001 -0.028
      -0.002  0.014  0.986 -0.002  0.012
      -0.000  0.001 -0.002  0.996  0.001
       0.007 -0.028  0.012  0.001  0.969
     SPIN  2
     eigenvalues:
       0.087  0.111  0.124  0.209  0.266
     eigenvectors (columns):
      -0.548 -0.605 -0.219  0.477 -0.241
      -0.418  0.496 -0.309  0.320  0.617
      -0.695  0.184  0.086 -0.647 -0.240
       0.197 -0.151 -0.893 -0.375  0.002
      -0.058 -0.575  0.226 -0.334  0.709
     occupation matrix ns (before diag.):
       0.136 -0.013 -0.031 -0.012 -0.044
      -0.013  0.177 -0.051 -0.006  0.056
      -0.031 -0.051  0.149  0.026 -0.006
      -0.012 -0.006  0.026  0.134  0.010
      -0.044  0.056 -0.006  0.010  0.200

     Number of occupied Hubbard levels =    5.7091

     negative rho (up, down):  0.000E+00 3.260E-04

     HUBBARD ENERGY =    0.1213  (Ry)

     total cpu time spent up to now is    73822.3 secs

     total energy              =   -1427.48607265 Ry
     estimated scf accuracy    <       0.00118067 Ry

     total magnetization       =     9.04 Bohr mag/cell
     absolute magnetization    =     9.71 Bohr mag/cell
[tb_dev] Currently allocated     0.00E+00 Mbytes, locked:    0 /   0
[tb_pin] Currently allocated     0.00E+00 Mbytes, locked:    0 /   0

     iteration #183     ecut=    90.00 Ry     beta= 0.30
     CG style diagonalization

---- Real-time Memory Report at c_bands before calling an iterative solver
         24433 MiB given to the printing process from OS
             0 MiB allocation reported by mallinfo(arena+hblkhd)
        460731 MiB available memory on the node where the printing process lives
     GPU memory used/free/total (MiB): 11362 / 53582 / 64944
------------------
     ethr =  1.17E-08,  avg # of iterations =  4.3

     =================== HUBBARD OCCUPATIONS ===================
     ------------------------ ATOM    1 ------------------------
     Tr[ns(  1)] (up, down, total) =   4.91255  0.79786  5.71042
     Atomic magnetic moment for atom   1 =   4.11469
     SPIN  1
     eigenvalues:
       0.932  0.991  0.996  0.996  0.997
     eigenvectors (columns):
      -0.148 -0.149 -0.818  0.430 -0.320
       0.670 -0.019 -0.042 -0.344 -0.656
      -0.329  0.845  0.101  0.070 -0.404
      -0.030  0.284 -0.553 -0.695  0.360
       0.648  0.428 -0.118  0.457  0.417
     occupation matrix ns (before diag.):
       0.995  0.006 -0.002 -0.000  0.006
       0.006  0.968  0.014  0.001 -0.028
      -0.002  0.014  0.986 -0.002  0.012
      -0.000  0.001 -0.002  0.996  0.001
       0.006 -0.028  0.012  0.001  0.969
     SPIN  2
     eigenvalues:
       0.087  0.111  0.125  0.209  0.265
     eigenvectors (columns):
      -0.548 -0.606 -0.216  0.475 -0.245
      -0.418  0.495 -0.312  0.325  0.614
      -0.694  0.186  0.083 -0.648 -0.237
       0.198 -0.156 -0.893 -0.374  0.005
      -0.061 -0.573  0.229 -0.330  0.712
     occupation matrix ns (before diag.):
       0.136 -0.013 -0.031 -0.012 -0.044
      -0.013  0.177 -0.051 -0.006  0.055
      -0.031 -0.051  0.149  0.026 -0.006
      -0.012 -0.006  0.026  0.135  0.010
      -0.044  0.055 -0.006  0.010  0.201

     Number of occupied Hubbard levels =    5.7104

     negative rho (up, down):  0.000E+00 3.280E-04

     HUBBARD ENERGY =    0.1207  (Ry)

     total cpu time spent up to now is    74227.7 secs

     total energy              =   -1427.48518492 Ry
     estimated scf accuracy    <       0.00207955 Ry

     total magnetization       =     8.87 Bohr mag/cell
     absolute magnetization    =     9.66 Bohr mag/cell
[tb_dev] Currently allocated     0.00E+00 Mbytes, locked:    0 /   0
[tb_pin] Currently allocated     0.00E+00 Mbytes, locked:    0 /   0

     iteration #184     ecut=    90.00 Ry     beta= 0.30
     CG style diagonalization

---- Real-time Memory Report at c_bands before calling an iterative solver
         24433 MiB given to the printing process from OS
             0 MiB allocation reported by mallinfo(arena+hblkhd)
        460583 MiB available memory on the node where the printing process lives
     GPU memory used/free/total (MiB): 11362 / 53582 / 64944
------------------
     ethr =  1.17E-08,  avg # of iterations =  4.7

     =================== HUBBARD OCCUPATIONS ===================
     ------------------------ ATOM    1 ------------------------
     Tr[ns(  1)] (up, down, total) =   4.91344  0.79515  5.70859
     Atomic magnetic moment for atom   1 =   4.11828
     SPIN  1
     eigenvalues:
       0.933  0.991  0.996  0.996  0.997
     eigenvectors (columns):
      -0.160 -0.149 -0.825  0.404 -0.329
       0.672 -0.022 -0.032 -0.342 -0.656
      -0.321  0.849  0.104  0.072 -0.400
      -0.027  0.284 -0.536 -0.709  0.358
       0.647  0.419 -0.142  0.461  0.416
     occupation matrix ns (before diag.):
       0.994  0.007 -0.003 -0.000  0.007
       0.007  0.968  0.014  0.001 -0.028
      -0.003  0.014  0.986 -0.002  0.011
      -0.000  0.001 -0.002  0.996  0.001
       0.007 -0.028  0.011  0.001  0.969
     SPIN  2
     eigenvalues:
       0.087  0.110  0.124  0.209  0.265
     eigenvectors (columns):
      -0.548 -0.605 -0.220  0.478 -0.239
      -0.418  0.496 -0.309  0.317  0.619
      -0.695  0.183  0.088 -0.646 -0.242
       0.197 -0.150 -0.893 -0.376  0.000
      -0.057 -0.576  0.226 -0.336  0.708
     occupation matrix ns (before diag.):
       0.135 -0.013 -0.031 -0.013 -0.043
      -0.013  0.177 -0.051 -0.006  0.056
      -0.031 -0.051  0.149  0.026 -0.006
      -0.013 -0.006  0.026  0.134  0.010
      -0.043  0.056 -0.006  0.010  0.200

     Number of occupied Hubbard levels =    5.7086

     negative rho (up, down):  0.000E+00 3.254E-04

     HUBBARD ENERGY =    0.1215  (Ry)

     total cpu time spent up to now is    74676.5 secs

     total energy              =   -1427.48505167 Ry
     estimated scf accuracy    <       0.00101751 Ry

     total magnetization       =     9.14 Bohr mag/cell
     absolute magnetization    =     9.75 Bohr mag/cell
[tb_dev] Currently allocated     0.00E+00 Mbytes, locked:    0 /   0
[tb_pin] Currently allocated     0.00E+00 Mbytes, locked:    0 /   0

     iteration #185     ecut=    90.00 Ry     beta= 0.30
     CG style diagonalization

---- Real-time Memory Report at c_bands before calling an iterative solver
         24433 MiB given to the printing process from OS
             0 MiB allocation reported by mallinfo(arena+hblkhd)
        466077 MiB available memory on the node where the printing process lives
     GPU memory used/free/total (MiB): 11362 / 53582 / 64944
------------------
     ethr =  1.17E-08,  avg # of iterations =  4.9

     =================== HUBBARD OCCUPATIONS ===================
     ------------------------ ATOM    1 ------------------------
     Tr[ns(  1)] (up, down, total) =   4.91285  0.79922  5.71208
     Atomic magnetic moment for atom   1 =   4.11363
     SPIN  1
     eigenvalues:
       0.933  0.991  0.996  0.996  0.997
     eigenvectors (columns):
      -0.143 -0.151 -0.818  0.436 -0.314
       0.670 -0.019 -0.044 -0.342 -0.657
      -0.332  0.843  0.097  0.073 -0.406
      -0.031  0.285 -0.554 -0.694  0.359
       0.648  0.431 -0.112  0.454  0.419
     occupation matrix ns (before diag.):
       0.995  0.006 -0.002 -0.000  0.006
       0.006  0.968  0.014  0.001 -0.028
      -0.002  0.014  0.986 -0.002  0.012
      -0.000  0.001 -0.002  0.996  0.001
       0.006 -0.028  0.012  0.001  0.969
     SPIN  2
     eigenvalues:
       0.087  0.112  0.125  0.210  0.265
     eigenvectors (columns):
      -0.548 -0.606 -0.214  0.474 -0.247
      -0.417  0.495 -0.313  0.328  0.613
      -0.694  0.187  0.081 -0.649 -0.235
       0.199 -0.158 -0.892 -0.373  0.007
      -0.062 -0.572  0.230 -0.328  0.713
     occupation matrix ns (before diag.):
       0.136 -0.013 -0.031 -0.012 -0.044
      -0.013  0.177 -0.050 -0.005  0.055
      -0.031 -0.050  0.150  0.026 -0.006
      -0.012 -0.005  0.026  0.135  0.010
      -0.044  0.055 -0.006  0.010  0.201

     Number of occupied Hubbard levels =    5.7121

     negative rho (up, down):  0.000E+00 3.251E-04

     HUBBARD ENERGY =    0.1216  (Ry)

     total cpu time spent up to now is    75150.9 secs

     total energy              =   -1427.48640984 Ry
     estimated scf accuracy    <       0.00320895 Ry

     total magnetization       =     8.77 Bohr mag/cell
     absolute magnetization    =     9.63 Bohr mag/cell
[tb_dev] Currently allocated     0.00E+00 Mbytes, locked:    0 /   0
[tb_pin] Currently allocated     0.00E+00 Mbytes, locked:    0 /   0

     iteration #186     ecut=    90.00 Ry     beta= 0.30
     CG style diagonalization

---- Real-time Memory Report at c_bands before calling an iterative solver
         24433 MiB given to the printing process from OS
             0 MiB allocation reported by mallinfo(arena+hblkhd)
        426837 MiB available memory on the node where the printing process lives
     GPU memory used/free/total (MiB): 11362 / 53582 / 64944
------------------
     ethr =  1.17E-08,  avg # of iterations =  3.5

     =================== HUBBARD OCCUPATIONS ===================
     ------------------------ ATOM    1 ------------------------
     Tr[ns(  1)] (up, down, total) =   4.91324  0.79986  5.71310
     Atomic magnetic moment for atom   1 =   4.11338
     SPIN  1
     eigenvalues:
       0.933  0.991  0.996  0.996  0.997
     eigenvectors (columns):
      -0.140 -0.152 -0.819  0.438 -0.309
       0.669 -0.018 -0.045 -0.342 -0.658
      -0.334  0.841  0.094  0.074 -0.408
      -0.031  0.285 -0.554 -0.694  0.359
       0.648  0.433 -0.108  0.452  0.420
     occupation matrix ns (before diag.):
       0.995  0.006 -0.002 -0.000  0.006
       0.006  0.968  0.014  0.001 -0.028
      -0.002  0.014  0.986 -0.002  0.012
      -0.000  0.001 -0.002  0.996  0.001
       0.006 -0.028  0.012  0.001  0.969
     SPIN  2
     eigenvalues:
       0.087  0.112  0.126  0.210  0.265
     eigenvectors (columns):
      -0.549 -0.606 -0.213  0.473 -0.249
      -0.417  0.494 -0.314  0.330  0.612
      -0.694  0.188  0.080 -0.650 -0.233
       0.199 -0.160 -0.892 -0.372  0.008
      -0.063 -0.572  0.231 -0.326  0.714
     occupation matrix ns (before diag.):
       0.136 -0.013 -0.031 -0.012 -0.044
      -0.013  0.177 -0.050 -0.005  0.055
      -0.031 -0.050  0.150  0.026 -0.006
      -0.012 -0.005  0.026  0.136  0.010
      -0.044  0.055 -0.006  0.010  0.201

     Number of occupied Hubbard levels =    5.7131

     negative rho (up, down):  0.000E+00 3.231E-04

     HUBBARD ENERGY =    0.1222  (Ry)

     total cpu time spent up to now is    75469.8 secs

     total energy              =   -1427.48660656 Ry
     estimated scf accuracy    <       0.00423732 Ry

     total magnetization       =     8.68 Bohr mag/cell
     absolute magnetization    =     9.61 Bohr mag/cell
[tb_dev] Currently allocated     0.00E+00 Mbytes, locked:    0 /   0
[tb_pin] Currently allocated     0.00E+00 Mbytes, locked:    0 /   0

     iteration #187     ecut=    90.00 Ry     beta= 0.30
     CG style diagonalization

---- Real-time Memory Report at c_bands before calling an iterative solver
         24433 MiB given to the printing process from OS
             0 MiB allocation reported by mallinfo(arena+hblkhd)
        426375 MiB available memory on the node where the printing process lives
     GPU memory used/free/total (MiB): 11362 / 53582 / 64944
------------------

     Maximum CPU time exceeded

     max_seconds     =   75600.00
     elapsed seconds =   75601.58
     Calculation stopped in k-point loop, point #    73
     Calculation stopped in scf loop at iteration #   186

     Writing config to output data dir ./out/aiida.save/ :
     XML data file, charge density
 
     init_run     :     24.78s CPU     31.03s WALL (       1 calls)
     electrons    :  74806.51s CPU  75570.95s WALL (       1 calls)

     Called by init_run:
     wfcinit      :     18.15s CPU     23.71s WALL (       1 calls)
     wfcinit:atom :      0.53s CPU      0.53s WALL (     246 calls)
     wfcinit:wfcr :     10.17s CPU     10.21s WALL (     246 calls)
     potinit      :      0.94s CPU      1.11s WALL (       1 calls)
     hinit0       :      3.91s CPU      4.08s WALL (       1 calls)

     Called by electrons:
     c_bands      :  71815.49s CPU  72586.66s WALL (     187 calls)
     sum_band     :   2798.14s CPU   2806.88s WALL (     186 calls)
     v_of_rho     :     19.17s CPU     19.41s WALL (     187 calls)
     v_h          :      6.98s CPU      7.07s WALL (     187 calls)
     v_xc         :     12.18s CPU     12.33s WALL (     187 calls)
     newd         :     22.29s CPU     22.46s WALL (     187 calls)
     PAW_pot      :     50.59s CPU     50.95s WALL (     187 calls)
     mix_rho      :     32.94s CPU     33.19s WALL (     186 calls)

     Called by c_bands:
     init_us_2    :    110.71s CPU    111.34s WALL (   92077 calls)
     ccgdiagg     :  68490.28s CPU  69221.90s WALL (   46382 calls)
     wfcrot       :   1671.78s CPU   1677.84s WALL (   46382 calls)
                                     1677.75s GPU  (   46382 calls)

     Called by sum_band:
     sum_band:wei :      4.26s CPU      4.29s WALL (     186 calls)
     sum_band:loo :   1554.54s CPU   1558.91s WALL (     186 calls)
     sum_band:buf :    753.39s CPU    755.76s WALL (   45756 calls)
     sum_band:ini :     55.20s CPU     55.45s WALL (   45756 calls)
     sum_band:cal :      2.73s CPU      2.74s WALL (   45756 calls)
     sum_band:bec :     95.40s CPU     95.75s WALL (   45756 calls)
     addusdens    :     48.49s CPU     48.70s WALL (     186 calls)
                                       48.69s GPU  (     186 calls)
     addusd:skk   :      0.39s CPU      0.40s WALL (     558 calls)
                                        0.40s GPU  (     558 calls)

     Called by *cgdiagg:
     h_psi        :  26439.54s CPU  26952.61s WALL (18073922 calls)
     s_psi        :  29730.19s CPU  29898.83s WALL (36101708 calls)

     Called by h_psi:
     h_psi:calbec :    191.03s CPU    193.35s WALL (18073922 calls)
     vloc_psi     :   7118.14s CPU   7357.73s WALL (18073922 calls)
                                     7242.71s GPU  (18073922 calls)
     add_vuspsi   :  13685.29s CPU  14077.56s WALL (18073922 calls)
     vhpsi        :   4909.15s CPU   4944.31s WALL (18073922 calls)
     hs_1psi      :  38507.62s CPU  42682.06s WALL (18027540 calls)
                                    42570.40s GPU  (18027540 calls)
     s_1psi       :  16633.56s CPU  20333.37s WALL (18027540 calls)
                                    20221.69s GPU  (18027540 calls)

     General routines
     calbec       :    996.01s CPU   1006.72s WALL (54267142 calls)
     fft          :     40.70s CPU     42.60s WALL (    4673 calls)
                                        1.79s GPU  (    4299 calls)
     ffts         :      5.11s CPU      5.16s WALL (     746 calls)
                                        0.03s GPU  (     372 calls)
     fftw         :    288.92s CPU   3941.93s WALL (37163732 calls)
                                     3710.13s GPU  (37163732 calls)
     interpolate  :     50.69s CPU     50.91s WALL (     374 calls)
     davcio       :      0.05s CPU     16.22s WALL (     264 calls)
 
     Parallel routines

     Hubbard U routines
     new_ns       :   1155.36s CPU   1159.27s WALL (     186 calls)
     vhpsi        :   4909.15s CPU   4944.31s WALL (18073922 calls)

     PAW routines
     PAW_pot      :     50.59s CPU     50.95s WALL (     187 calls)
     PAW_symme    :      0.04s CPU      0.05s WALL (     373 calls)
 
     PWSCF        :     20h47m CPU     21h 0m WALL

 
   This run was terminated on:  12:20:50  15Oct2025            

=------------------------------------------------------------------------------=
   JOB DONE.
=------------------------------------------------------------------------------=
