
     Program PWSCF v.7.4.1 starts on 16Oct2025 at 10:54: 5 

     This program is part of the open-source Quantum ESPRESSO suite
     for quantum simulation of materials; please cite
         "P. Giannozzi et al., J. Phys.:Condens. Matter 21 395502 (2009);
         "P. Giannozzi et al., J. Phys.:Condens. Matter 29 465901 (2017);
         "P. Giannozzi et al., J. Chem. Phys. 152 154105 (2020);
          URL http://www.quantum-espresso.org", 
     in publications or presentations arising from this work. More details at
     http://www.quantum-espresso.org/quote

     Parallel version (MPI & OpenMP), running on       1 processor cores
     Number of MPI processes:                 1
     Threads/MPI process:                     1

     MPI processes distributed on     1 nodes
     471010 MiB available memory on the printing compute node when the environment starts
 
     Reading input from pwscf.in
Warning: card &FCP ignored
Warning: card &RISM ignored

     Current dimensions of program PWSCF are:
     Max number of different atomic species (ntypx) = 10
     Max number of k-points (npk) =  40000
     Max angular momentum in pseudopotentials (lmaxx) =  4
     file O.pbesol-n-kjpaw_psl.0.1.UPF: wavefunction(s)  2P renormalized
 check tnoseh fnoseh  F    1.000000000000000     
     Message from routine setup:
     using ibrav=0 with symmetry is DISCOURAGED, use correct ibrav instead
 
     Subspace diagonalization in iterative solution of the eigenvalue problem:
     a serial algorithm will be used

 
     G-vector sticks info
     --------------------
     sticks:   dense  smooth     PW     G-vecs:    dense   smooth      PW
     Sum        6297    3147    863               463333   163851   23691
 
     Using Slab Decomposition
 


     bravais-lattice index     =            0
     lattice parameter (alat)  =      14.3787  a.u.
     unit-cell volume          =    3429.2192 (a.u.)^3
     number of atoms/cell      =           33
     number of atomic types    =            3
     number of electrons       =       201.00
     number of Kohn-Sham states=          121
     kinetic-energy cutoff     =      50.0000  Ry
     charge density cutoff     =     400.0000  Ry
     scf convergence threshold =      7.2E-09
     mixing beta               =       0.7000
     number of iterations used =            8  plain     mixing
     energy convergence thresh.=      3.6E-04
     force convergence thresh. =      1.0E-04
     press convergence thresh. =      5.0E-01
     Exchange-correlation= PBESOL
                           (   1   4  10   8   0   0   0)
     nstep                     =          100


     GPU acceleration is ACTIVE.  1 visible GPUs per MPI rank
     GPU-aware MPI enabled


     GPU used by master process:

        Device Number: 0
        Device name: NVIDIA A100-SXM-64GB
        Compute capability : 80
        Ratio of single to double precision performance  : 2
        Memory Clock Rate (KHz): 1593000
        Memory Bus Width (bits): 4096
        Peak Memory Bandwidth (GB/s): ******
     Hubbard projectors: ortho-atomic
     Hubbard parameters of DFT+U (Dudarev formulation) in eV:
     U(Co-3d) =  5.2000

     Internal variables: lda_plus_u = T, lda_plus_u_kind = 0

     celldm(1)=  14.378749  celldm(2)=   0.000000  celldm(3)=   0.000000
     celldm(4)=   0.000000  celldm(5)=   0.000000  celldm(6)=   0.000000

     crystal axes: (cart. coord. in units of alat)
               a(1) = (   1.000000   0.000000   0.000000 )  
               a(2) = (   0.339658   0.955785   0.000000 )  
               a(3) = (   0.545206   0.375070   1.206901 )  

     reciprocal axes: (cart. coord. in units 2 pi/alat)
               b(1) = (  1.000000 -0.355371 -0.341301 )  
               b(2) = (  0.000000  1.046260 -0.325148 )  
               b(3) = (  0.000000  0.000000  0.828568 )  


     PseudoPot. # 1 for Co read from file:
     /leonardo_scratch/large/userexternal/nalghamd/mc_mace/GNoME-screening/2_space_group_DFT/pseudo_SSSP1.3_aiida/co_pbesol_v1.2.uspp.F.UPF
     MD5 check sum: 3b4cd4e7cc7df4da9fdede0fd33e2193
     Pseudo is Ultrasoft + core correction, Zval = 17.0
     Generated by new atomic code, or converted to UPF format
     Using radial grid of  863 points,  6 beta functions with: 
                l(1) =   0
                l(2) =   0
                l(3) =   1
                l(4) =   1
                l(5) =   2
                l(6) =   2
     Q(r) pseudized with  8 coefficients,  rinner =    1.200   1.200   1.200
                                                       1.200   1.200

     PseudoPot. # 2 for O  read from file:
     /leonardo_scratch/large/userexternal/nalghamd/mc_mace/GNoME-screening/2_space_group_DFT/pseudo_SSSP1.3_aiida/O.pbesol-n-kjpaw_psl.0.1.UPF
     MD5 check sum: 81d73d1479e654e5638b0319f0d6c2c7
     Pseudo is Projector augmented-wave + core cor, Zval =  6.0
     Generated using "atomic" code by A. Dal Corso  v.6.0 svn rev. 13079
     Shape of augmentation charge: BESSEL
     Using radial grid of 1095 points,  4 beta functions with: 
                l(1) =   0
                l(2) =   0
                l(3) =   1
                l(4) =   1
     Q(r) pseudized with 0 coefficients 


     PseudoPot. # 3 for P  read from file:
     /leonardo_scratch/large/userexternal/nalghamd/mc_mace/GNoME-screening/2_space_group_DFT/pseudo_SSSP1.3_aiida/P.pbesol-n-rrkjus_psl.1.0.0.UPF
     MD5 check sum: bbb94b1b16383820d6a769669b5d42db
     Pseudo is Ultrasoft + core correction, Zval =  5.0
     Generated using "atomic" code by A. Dal Corso  v.6.0 svn rev. 13079
     Using radial grid of 1147 points,  6 beta functions with: 
                l(1) =   0
                l(2) =   0
                l(3) =   1
                l(4) =   1
                l(5) =   2
                l(6) =   2
     Q(r) pseudized with 0 coefficients 


     atomic species   valence    mass     pseudopotential
     Co               17.00    58.93319     Co( 1.00)
     O                 6.00    15.99940     O ( 1.00)
     P                 5.00    30.97376     P ( 1.00)

     Starting magnetic structure 
     atomic species   magnetization
     Co              0.100
     O               0.294
     P               0.100

      2 Sym. Ops., with inversion, found


                                    s                        frac. trans.

      isym =  1     identity                                     

 cryst.   s( 1) = (     1          0          0      )
                  (     0          1          0      )
                  (     0          0          1      )

 cart.    s( 1) = (  1.0000000  0.0000000 -0.0000000 )
                  (  0.0000000  1.0000000 -0.0000000 )
                  (  0.0000000  0.0000000  1.0000000 )


      isym =  2     inversion                                    

 cryst.   s( 2) = (    -1          0          0      )
                  (     0         -1          0      )
                  (     0          0         -1      )

 cart.    s( 2) = ( -1.0000000 -0.0000000  0.0000000 )
                  (  0.0000000 -1.0000000  0.0000000 )
                  (  0.0000000  0.0000000 -1.0000000 )


   Cartesian axes

     site n.     atom                  positions (alat units)
         1        Co     tau(   1) = (   0.5000000   0.0000000   0.0000000  )
         2        P      tau(   2) = (   1.4585591   1.0478108   0.8391197  )
         3        P      tau(   3) = (   0.6957761   0.4851867   0.9821001  )
         4        P      tau(   4) = (   0.4263050   0.2830445   0.3677814  )
         5        P      tau(   5) = (   1.1890880   0.8456686   0.2248010  )
         6        P      tau(   6) = (   1.0982743   0.3824811   0.5739261  )
         7        P      tau(   7) = (   0.8674690   0.2270315   0.0289994  )
         8        P      tau(   8) = (   0.7865899   0.9483742   0.6329750  )
         9        P      tau(   9) = (   1.0173952   1.1038237   1.1779017  )
        10        O      tau(  10) = (   0.6645377   1.0226265   0.7915497  )
        11        O      tau(  11) = (   0.9853825   1.2381996   1.0164461  )
        12        O      tau(  12) = (   1.2203265   0.3082288   0.4153514  )
        13        O      tau(  13) = (   0.8994817   0.0926557   0.1904550  )
        14        O      tau(  14) = (   1.3834886   1.1605964   0.6749148  )
        15        O      tau(  15) = (   0.5985318   0.5915989   1.1366788  )
        16        O      tau(  16) = (   0.5013756   0.1702589   0.5319863  )
        17        O      tau(  17) = (   1.2863323   0.7392564   0.0702223  )
        18        O      tau(  18) = (   1.4456932   1.1456111   1.0077528  )
        19        O      tau(  19) = (   0.6263474   0.5368971   0.8075472  )
        20        O      tau(  20) = (   0.4391710   0.1852442   0.1991483  )
        21        O      tau(  21) = (   1.2585168   0.7939582   0.3993539  )
        22        O      tau(  22) = (   1.3678364   0.8708432   0.8242278  )
        23        O      tau(  23) = (   0.8911424   0.5102657   1.0165680  )
        24        O      tau(  24) = (   0.5170278   0.4600120   0.3826734  )
        25        O      tau(  25) = (   0.9937218   0.8205896   0.1903331  )
        26        O      tau(  26) = (   1.2060722   0.4979870   0.6959487  )
        27        O      tau(  27) = (   1.2648700   0.5331490   1.1200501  )
        28        O      tau(  28) = (   0.6787919   0.8328682   0.5109525  )
        29        O      tau(  29) = (   0.6199941   0.7977062   0.0868510  )
        30        O      tau(  30) = (   0.9477983   0.8724656   0.7120524  )
        31        O      tau(  31) = (   1.0323948   0.9228420   1.1079702  )
        32        O      tau(  32) = (   0.9370659   0.4583897   0.4948488  )
        33        O      tau(  33) = (   0.8524694   0.4080133   0.0989309  )

   Crystallographic axes

     site n.     atom                  positions (cryst. coord.)
         1        Co     tau(   1) = (  0.5000000  0.0000000  0.0000000  )
         2        P      tau(   2) = (  0.7998050  0.8234450  0.6952680  )
         3        P      tau(   3) = (  0.1881630  0.1883040  0.8137370  )
         4        P      tau(   4) = (  0.2001950  0.1765550  0.3047320  )
         5        P      tau(   5) = (  0.8118370  0.8116960  0.1862630  )
         6        P      tau(   6) = (  0.7664700  0.2135640  0.4755370  )
         7        P      tau(   7) = (  0.7768910  0.2281050  0.0240280  )
         8        P      tau(   8) = (  0.2335300  0.7864360  0.5244630  )
         9        P      tau(   9) = (  0.2231090  0.7718950  0.9759720  )
        10        O      tau(  10) = (  0.0309690  0.8125630  0.6558530  )
        11        O      tau(  11) = (  0.1984480  0.9649840  0.8421950  )
        12        O      tau(  12) = (  0.9690310  0.1874370  0.3441470  )
        13        O      tau(  13) = (  0.8015520  0.0350160  0.1578050  )
        14        O      tau(  14) = (  0.7406970  0.9948390  0.5592130  )
        15        O      tau(  15) = (  0.0003450  0.2493780  0.9418160  )
        16        O      tau(  16) = (  0.2593030  0.0051610  0.4407870  )
        17        O      tau(  17) = (  0.9996550  0.7506220  0.0581840  )
        18        O      tau(  18) = (  0.6946290  0.8709390  0.8349920  )
        19        O      tau(  19) = (  0.1599330  0.2991620  0.6691080  )
        20        O      tau(  20) = (  0.3053710  0.1290610  0.1650080  )
        21        O      tau(  21) = (  0.8400670  0.7008380  0.3308920  )
        22        O      tau(  22) = (  0.7770540  0.6431330  0.6829290  )
        23        O      tau(  23) = (  0.3628530  0.2033360  0.8422960  )
        24        O      tau(  24) = (  0.2229460  0.3568670  0.3170710  )
        25        O      tau(  25) = (  0.6371470  0.7966640  0.1577040  )
        26        O      tau(  26) = (  0.7915740  0.2947380  0.5766410  )
        27        O      tau(  27) = (  0.6931300  0.1936310  0.9280380  )
        28        O      tau(  28) = (  0.2084260  0.7052620  0.4233590  )
        29        O      tau(  29) = (  0.3068700  0.8063690  0.0719620  )
        30        O      tau(  30) = (  0.3947250  0.6813040  0.5899840  )
        31        O      tau(  31) = (  0.3262920  0.6052790  0.9180290  )
        32        O      tau(  32) = (  0.6052750  0.3186960  0.4100160  )
        33        O      tau(  33) = (  0.6737080  0.3947210  0.0819710  )

     number of k points=   123  Marzari-Vanderbilt smearing, width (Ry)=  0.0200
                       cart. coord. in units 2pi/alat
        k(    1) = (   0.0000000   0.0000000   0.0000000), wk =   0.0040816
        k(    2) = (   0.0000000   0.0000000   0.1657137), wk =   0.0081633
        k(    3) = (   0.0000000   0.0000000   0.3314273), wk =   0.0081633
        k(    4) = (   0.0000000   0.1494658  -0.0464497), wk =   0.0081633
        k(    5) = (   0.0000000   0.1494658   0.1192640), wk =   0.0081633
        k(    6) = (   0.0000000   0.1494658   0.2849776), wk =   0.0081633
        k(    7) = (   0.0000000   0.1494658  -0.3778770), wk =   0.0081633
        k(    8) = (   0.0000000   0.1494658  -0.2121633), wk =   0.0081633
        k(    9) = (   0.0000000   0.2989315  -0.0928993), wk =   0.0081633
        k(   10) = (   0.0000000   0.2989315   0.0728143), wk =   0.0081633
        k(   11) = (   0.0000000   0.2989315   0.2385280), wk =   0.0081633
        k(   12) = (   0.0000000   0.2989315  -0.4243266), wk =   0.0081633
        k(   13) = (   0.0000000   0.2989315  -0.2586130), wk =   0.0081633
        k(   14) = (   0.0000000   0.4483973  -0.1393490), wk =   0.0081633
        k(   15) = (   0.0000000   0.4483973   0.0263646), wk =   0.0081633
        k(   16) = (   0.0000000   0.4483973   0.1920783), wk =   0.0081633
        k(   17) = (   0.0000000   0.4483973  -0.4707763), wk =   0.0081633
        k(   18) = (   0.0000000   0.4483973  -0.3050627), wk =   0.0081633
        k(   19) = (   0.1428571  -0.0507673  -0.0487573), wk =   0.0081633
        k(   20) = (   0.1428571  -0.0507673   0.1169564), wk =   0.0081633
        k(   21) = (   0.1428571  -0.0507673   0.2826700), wk =   0.0081633
        k(   22) = (   0.1428571  -0.0507673  -0.3801846), wk =   0.0081633
        k(   23) = (   0.1428571  -0.0507673  -0.2144709), wk =   0.0081633
        k(   24) = (   0.1428571   0.0986985  -0.0952070), wk =   0.0081633
        k(   25) = (   0.1428571   0.0986985   0.0705067), wk =   0.0081633
        k(   26) = (   0.1428571   0.0986985   0.2362204), wk =   0.0081633
        k(   27) = (   0.1428571   0.0986985  -0.4266343), wk =   0.0081633
        k(   28) = (   0.1428571   0.0986985  -0.2609206), wk =   0.0081633
        k(   29) = (   0.1428571   0.2481642  -0.1416566), wk =   0.0081633
        k(   30) = (   0.1428571   0.2481642   0.0240570), wk =   0.0081633
        k(   31) = (   0.1428571   0.2481642   0.1897707), wk =   0.0081633
        k(   32) = (   0.1428571   0.2481642  -0.4730839), wk =   0.0081633
        k(   33) = (   0.1428571   0.2481642  -0.3073703), wk =   0.0081633
        k(   34) = (   0.1428571   0.3976300  -0.1881063), wk =   0.0081633
        k(   35) = (   0.1428571   0.3976300  -0.0223926), wk =   0.0081633
        k(   36) = (   0.1428571   0.3976300   0.1433210), wk =   0.0081633
        k(   37) = (   0.1428571   0.3976300  -0.5195336), wk =   0.0081633
        k(   38) = (   0.1428571   0.3976300  -0.3538200), wk =   0.0081633
        k(   39) = (   0.1428571  -0.4991646   0.0905917), wk =   0.0081633
        k(   40) = (   0.1428571  -0.4991646   0.2563054), wk =   0.0081633
        k(   41) = (   0.1428571  -0.4991646   0.4220190), wk =   0.0081633
        k(   42) = (   0.1428571  -0.4991646  -0.2408356), wk =   0.0081633
        k(   43) = (   0.1428571  -0.4991646  -0.0751219), wk =   0.0081633
        k(   44) = (   0.1428571  -0.3496988   0.0441420), wk =   0.0081633
        k(   45) = (   0.1428571  -0.3496988   0.2098557), wk =   0.0081633
        k(   46) = (   0.1428571  -0.3496988   0.3755694), wk =   0.0081633
        k(   47) = (   0.1428571  -0.3496988  -0.2872853), wk =   0.0081633
        k(   48) = (   0.1428571  -0.3496988  -0.1215716), wk =   0.0081633
        k(   49) = (   0.1428571  -0.2002331  -0.0023076), wk =   0.0081633
        k(   50) = (   0.1428571  -0.2002331   0.1634060), wk =   0.0081633
        k(   51) = (   0.1428571  -0.2002331   0.3291197), wk =   0.0081633
        k(   52) = (   0.1428571  -0.2002331  -0.3337349), wk =   0.0081633
        k(   53) = (   0.1428571  -0.2002331  -0.1680213), wk =   0.0081633
        k(   54) = (   0.2857143  -0.1015346  -0.0975146), wk =   0.0081633
        k(   55) = (   0.2857143  -0.1015346   0.0681991), wk =   0.0081633
        k(   56) = (   0.2857143  -0.1015346   0.2339127), wk =   0.0081633
        k(   57) = (   0.2857143  -0.1015346  -0.4289419), wk =   0.0081633
        k(   58) = (   0.2857143  -0.1015346  -0.2632282), wk =   0.0081633
        k(   59) = (   0.2857143   0.0479311  -0.1439642), wk =   0.0081633
        k(   60) = (   0.2857143   0.0479311   0.0217494), wk =   0.0081633
        k(   61) = (   0.2857143   0.0479311   0.1874631), wk =   0.0081633
        k(   62) = (   0.2857143   0.0479311  -0.4753916), wk =   0.0081633
        k(   63) = (   0.2857143   0.0479311  -0.3096779), wk =   0.0081633
        k(   64) = (   0.2857143   0.1973969  -0.1904139), wk =   0.0081633
        k(   65) = (   0.2857143   0.1973969  -0.0247003), wk =   0.0081633
        k(   66) = (   0.2857143   0.1973969   0.1410134), wk =   0.0081633
        k(   67) = (   0.2857143   0.1973969  -0.5218412), wk =   0.0081633
        k(   68) = (   0.2857143   0.1973969  -0.3561276), wk =   0.0081633
        k(   69) = (   0.2857143   0.3468627  -0.2368636), wk =   0.0081633
        k(   70) = (   0.2857143   0.3468627  -0.0711499), wk =   0.0081633
        k(   71) = (   0.2857143   0.3468627   0.0945637), wk =   0.0081633
        k(   72) = (   0.2857143   0.3468627  -0.5682909), wk =   0.0081633
        k(   73) = (   0.2857143   0.3468627  -0.4025772), wk =   0.0081633
        k(   74) = (   0.2857143  -0.5499319   0.0418344), wk =   0.0081633
        k(   75) = (   0.2857143  -0.5499319   0.2075481), wk =   0.0081633
        k(   76) = (   0.2857143  -0.5499319   0.3732617), wk =   0.0081633
        k(   77) = (   0.2857143  -0.5499319  -0.2895929), wk =   0.0081633
        k(   78) = (   0.2857143  -0.5499319  -0.1238792), wk =   0.0081633
        k(   79) = (   0.2857143  -0.4004661  -0.0046152), wk =   0.0081633
        k(   80) = (   0.2857143  -0.4004661   0.1610984), wk =   0.0081633
        k(   81) = (   0.2857143  -0.4004661   0.3268121), wk =   0.0081633
        k(   82) = (   0.2857143  -0.4004661  -0.3360426), wk =   0.0081633
        k(   83) = (   0.2857143  -0.4004661  -0.1703289), wk =   0.0081633
        k(   84) = (   0.2857143  -0.2510004  -0.0510649), wk =   0.0081633
        k(   85) = (   0.2857143  -0.2510004   0.1146487), wk =   0.0081633
        k(   86) = (   0.2857143  -0.2510004   0.2803624), wk =   0.0081633
        k(   87) = (   0.2857143  -0.2510004  -0.3824922), wk =   0.0081633
        k(   88) = (   0.2857143  -0.2510004  -0.2167786), wk =   0.0081633
        k(   89) = (   0.4285714  -0.1523019  -0.1462719), wk =   0.0081633
        k(   90) = (   0.4285714  -0.1523019   0.0194418), wk =   0.0081633
        k(   91) = (   0.4285714  -0.1523019   0.1851554), wk =   0.0081633
        k(   92) = (   0.4285714  -0.1523019  -0.4776992), wk =   0.0081633
        k(   93) = (   0.4285714  -0.1523019  -0.3119855), wk =   0.0081633
        k(   94) = (   0.4285714  -0.0028362  -0.1927215), wk =   0.0081633
        k(   95) = (   0.4285714  -0.0028362  -0.0270079), wk =   0.0081633
        k(   96) = (   0.4285714  -0.0028362   0.1387058), wk =   0.0081633
        k(   97) = (   0.4285714  -0.0028362  -0.5241489), wk =   0.0081633
        k(   98) = (   0.4285714  -0.0028362  -0.3584352), wk =   0.0081633
        k(   99) = (   0.4285714   0.1466296  -0.2391712), wk =   0.0081633
        k(  100) = (   0.4285714   0.1466296  -0.0734576), wk =   0.0081633
        k(  101) = (   0.4285714   0.1466296   0.0922561), wk =   0.0081633
        k(  102) = (   0.4285714   0.1466296  -0.5705985), wk =   0.0081633
        k(  103) = (   0.4285714   0.1466296  -0.4048849), wk =   0.0081633
        k(  104) = (   0.4285714   0.2960954  -0.2856209), wk =   0.0081633
        k(  105) = (   0.4285714   0.2960954  -0.1199072), wk =   0.0081633
        k(  106) = (   0.4285714   0.2960954   0.0458064), wk =   0.0081633
        k(  107) = (   0.4285714   0.2960954  -0.6170482), wk =   0.0081633
        k(  108) = (   0.4285714   0.2960954  -0.4513345), wk =   0.0081633
        k(  109) = (   0.4285714  -0.6006992  -0.0069229), wk =   0.0081633
        k(  110) = (   0.4285714  -0.6006992   0.1587908), wk =   0.0081633
        k(  111) = (   0.4285714  -0.6006992   0.3245044), wk =   0.0081633
        k(  112) = (   0.4285714  -0.6006992  -0.3383502), wk =   0.0081633
        k(  113) = (   0.4285714  -0.6006992  -0.1726365), wk =   0.0081633
        k(  114) = (   0.4285714  -0.4512334  -0.0533725), wk =   0.0081633
        k(  115) = (   0.4285714  -0.4512334   0.1123411), wk =   0.0081633
        k(  116) = (   0.4285714  -0.4512334   0.2780548), wk =   0.0081633
        k(  117) = (   0.4285714  -0.4512334  -0.3847998), wk =   0.0081633
        k(  118) = (   0.4285714  -0.4512334  -0.2190862), wk =   0.0081633
        k(  119) = (   0.4285714  -0.3017677  -0.0998222), wk =   0.0081633
        k(  120) = (   0.4285714  -0.3017677   0.0658915), wk =   0.0081633
        k(  121) = (   0.4285714  -0.3017677   0.2316051), wk =   0.0081633
        k(  122) = (   0.4285714  -0.3017677  -0.4312495), wk =   0.0081633
        k(  123) = (   0.4285714  -0.3017677  -0.2655359), wk =   0.0081633

                       cryst. coord.
        k(    1) = (   0.0000000   0.0000000   0.0000000), wk =   0.0040816
        k(    2) = (   0.0000000   0.0000000   0.2000000), wk =   0.0081633
        k(    3) = (   0.0000000   0.0000000   0.4000000), wk =   0.0081633
        k(    4) = (   0.0000000   0.1428571  -0.0000000), wk =   0.0081633
        k(    5) = (   0.0000000   0.1428571   0.2000000), wk =   0.0081633
        k(    6) = (   0.0000000   0.1428571   0.4000000), wk =   0.0081633
        k(    7) = (   0.0000000   0.1428571  -0.4000000), wk =   0.0081633
        k(    8) = (   0.0000000   0.1428571  -0.2000000), wk =   0.0081633
        k(    9) = (   0.0000000   0.2857143  -0.0000000), wk =   0.0081633
        k(   10) = (   0.0000000   0.2857143   0.2000000), wk =   0.0081633
        k(   11) = (   0.0000000   0.2857143   0.4000000), wk =   0.0081633
        k(   12) = (   0.0000000   0.2857143  -0.4000000), wk =   0.0081633
        k(   13) = (   0.0000000   0.2857143  -0.2000000), wk =   0.0081633
        k(   14) = (   0.0000000   0.4285714   0.0000000), wk =   0.0081633
        k(   15) = (   0.0000000   0.4285714   0.2000000), wk =   0.0081633
        k(   16) = (   0.0000000   0.4285714   0.4000000), wk =   0.0081633
        k(   17) = (   0.0000000   0.4285714  -0.4000000), wk =   0.0081633
        k(   18) = (   0.0000000   0.4285714  -0.2000000), wk =   0.0081633
        k(   19) = (   0.1428571  -0.0000000  -0.0000000), wk =   0.0081633
        k(   20) = (   0.1428571  -0.0000000   0.2000000), wk =   0.0081633
        k(   21) = (   0.1428571  -0.0000000   0.4000000), wk =   0.0081633
        k(   22) = (   0.1428571  -0.0000000  -0.4000000), wk =   0.0081633
        k(   23) = (   0.1428571  -0.0000000  -0.2000000), wk =   0.0081633
        k(   24) = (   0.1428571   0.1428571  -0.0000000), wk =   0.0081633
        k(   25) = (   0.1428571   0.1428571   0.2000000), wk =   0.0081633
        k(   26) = (   0.1428571   0.1428571   0.4000000), wk =   0.0081633
        k(   27) = (   0.1428571   0.1428571  -0.4000000), wk =   0.0081633
        k(   28) = (   0.1428571   0.1428571  -0.2000000), wk =   0.0081633
        k(   29) = (   0.1428571   0.2857143  -0.0000000), wk =   0.0081633
        k(   30) = (   0.1428571   0.2857143   0.2000000), wk =   0.0081633
        k(   31) = (   0.1428571   0.2857143   0.4000000), wk =   0.0081633
        k(   32) = (   0.1428571   0.2857143  -0.4000000), wk =   0.0081633
        k(   33) = (   0.1428571   0.2857143  -0.2000000), wk =   0.0081633
        k(   34) = (   0.1428571   0.4285714  -0.0000000), wk =   0.0081633
        k(   35) = (   0.1428571   0.4285714   0.2000000), wk =   0.0081633
        k(   36) = (   0.1428571   0.4285714   0.4000000), wk =   0.0081633
        k(   37) = (   0.1428571   0.4285714  -0.4000000), wk =   0.0081633
        k(   38) = (   0.1428571   0.4285714  -0.2000000), wk =   0.0081633
        k(   39) = (   0.1428571  -0.4285714   0.0000000), wk =   0.0081633
        k(   40) = (   0.1428571  -0.4285714   0.2000000), wk =   0.0081633
        k(   41) = (   0.1428571  -0.4285714   0.4000000), wk =   0.0081633
        k(   42) = (   0.1428571  -0.4285714  -0.4000000), wk =   0.0081633
        k(   43) = (   0.1428571  -0.4285714  -0.2000000), wk =   0.0081633
        k(   44) = (   0.1428571  -0.2857143  -0.0000000), wk =   0.0081633
        k(   45) = (   0.1428571  -0.2857143   0.2000000), wk =   0.0081633
        k(   46) = (   0.1428571  -0.2857143   0.4000000), wk =   0.0081633
        k(   47) = (   0.1428571  -0.2857143  -0.4000000), wk =   0.0081633
        k(   48) = (   0.1428571  -0.2857143  -0.2000000), wk =   0.0081633
        k(   49) = (   0.1428571  -0.1428571   0.0000000), wk =   0.0081633
        k(   50) = (   0.1428571  -0.1428571   0.2000000), wk =   0.0081633
        k(   51) = (   0.1428571  -0.1428571   0.4000000), wk =   0.0081633
        k(   52) = (   0.1428571  -0.1428571  -0.4000000), wk =   0.0081633
        k(   53) = (   0.1428571  -0.1428571  -0.2000000), wk =   0.0081633
        k(   54) = (   0.2857143  -0.0000000  -0.0000000), wk =   0.0081633
        k(   55) = (   0.2857143  -0.0000000   0.2000000), wk =   0.0081633
        k(   56) = (   0.2857143  -0.0000000   0.4000000), wk =   0.0081633
        k(   57) = (   0.2857143  -0.0000000  -0.4000000), wk =   0.0081633
        k(   58) = (   0.2857143  -0.0000000  -0.2000000), wk =   0.0081633
        k(   59) = (   0.2857143   0.1428571  -0.0000000), wk =   0.0081633
        k(   60) = (   0.2857143   0.1428571   0.2000000), wk =   0.0081633
        k(   61) = (   0.2857143   0.1428571   0.4000000), wk =   0.0081633
        k(   62) = (   0.2857143   0.1428571  -0.4000000), wk =   0.0081633
        k(   63) = (   0.2857143   0.1428571  -0.2000000), wk =   0.0081633
        k(   64) = (   0.2857143   0.2857143  -0.0000000), wk =   0.0081633
        k(   65) = (   0.2857143   0.2857143   0.2000000), wk =   0.0081633
        k(   66) = (   0.2857143   0.2857143   0.4000000), wk =   0.0081633
        k(   67) = (   0.2857143   0.2857143  -0.4000000), wk =   0.0081633
        k(   68) = (   0.2857143   0.2857143  -0.2000000), wk =   0.0081633
        k(   69) = (   0.2857143   0.4285714  -0.0000000), wk =   0.0081633
        k(   70) = (   0.2857143   0.4285714   0.2000000), wk =   0.0081633
        k(   71) = (   0.2857143   0.4285714   0.4000000), wk =   0.0081633
        k(   72) = (   0.2857143   0.4285714  -0.4000000), wk =   0.0081633
        k(   73) = (   0.2857143   0.4285714  -0.2000000), wk =   0.0081633
        k(   74) = (   0.2857143  -0.4285714  -0.0000000), wk =   0.0081633
        k(   75) = (   0.2857143  -0.4285714   0.2000000), wk =   0.0081633
        k(   76) = (   0.2857143  -0.4285714   0.4000000), wk =   0.0081633
        k(   77) = (   0.2857143  -0.4285714  -0.4000000), wk =   0.0081633
        k(   78) = (   0.2857143  -0.4285714  -0.2000000), wk =   0.0081633
        k(   79) = (   0.2857143  -0.2857143   0.0000000), wk =   0.0081633
        k(   80) = (   0.2857143  -0.2857143   0.2000000), wk =   0.0081633
        k(   81) = (   0.2857143  -0.2857143   0.4000000), wk =   0.0081633
        k(   82) = (   0.2857143  -0.2857143  -0.4000000), wk =   0.0081633
        k(   83) = (   0.2857143  -0.2857143  -0.2000000), wk =   0.0081633
        k(   84) = (   0.2857143  -0.1428571   0.0000000), wk =   0.0081633
        k(   85) = (   0.2857143  -0.1428571   0.2000000), wk =   0.0081633
        k(   86) = (   0.2857143  -0.1428571   0.4000000), wk =   0.0081633
        k(   87) = (   0.2857143  -0.1428571  -0.4000000), wk =   0.0081633
        k(   88) = (   0.2857143  -0.1428571  -0.2000000), wk =   0.0081633
        k(   89) = (   0.4285714   0.0000000   0.0000000), wk =   0.0081633
        k(   90) = (   0.4285714   0.0000000   0.2000000), wk =   0.0081633
        k(   91) = (   0.4285714   0.0000000   0.4000000), wk =   0.0081633
        k(   92) = (   0.4285714   0.0000000  -0.4000000), wk =   0.0081633
        k(   93) = (   0.4285714   0.0000000  -0.2000000), wk =   0.0081633
        k(   94) = (   0.4285714   0.1428571   0.0000000), wk =   0.0081633
        k(   95) = (   0.4285714   0.1428571   0.2000000), wk =   0.0081633
        k(   96) = (   0.4285714   0.1428571   0.4000000), wk =   0.0081633
        k(   97) = (   0.4285714   0.1428571  -0.4000000), wk =   0.0081633
        k(   98) = (   0.4285714   0.1428571  -0.2000000), wk =   0.0081633
        k(   99) = (   0.4285714   0.2857143  -0.0000000), wk =   0.0081633
        k(  100) = (   0.4285714   0.2857143   0.2000000), wk =   0.0081633
        k(  101) = (   0.4285714   0.2857143   0.4000000), wk =   0.0081633
        k(  102) = (   0.4285714   0.2857143  -0.4000000), wk =   0.0081633
        k(  103) = (   0.4285714   0.2857143  -0.2000000), wk =   0.0081633
        k(  104) = (   0.4285714   0.4285714  -0.0000000), wk =   0.0081633
        k(  105) = (   0.4285714   0.4285714   0.2000000), wk =   0.0081633
        k(  106) = (   0.4285714   0.4285714   0.4000000), wk =   0.0081633
        k(  107) = (   0.4285714   0.4285714  -0.4000000), wk =   0.0081633
        k(  108) = (   0.4285714   0.4285714  -0.2000000), wk =   0.0081633
        k(  109) = (   0.4285714  -0.4285714   0.0000000), wk =   0.0081633
        k(  110) = (   0.4285714  -0.4285714   0.2000000), wk =   0.0081633
        k(  111) = (   0.4285714  -0.4285714   0.4000000), wk =   0.0081633
        k(  112) = (   0.4285714  -0.4285714  -0.4000000), wk =   0.0081633
        k(  113) = (   0.4285714  -0.4285714  -0.2000000), wk =   0.0081633
        k(  114) = (   0.4285714  -0.2857143   0.0000000), wk =   0.0081633
        k(  115) = (   0.4285714  -0.2857143   0.2000000), wk =   0.0081633
        k(  116) = (   0.4285714  -0.2857143   0.4000000), wk =   0.0081633
        k(  117) = (   0.4285714  -0.2857143  -0.4000000), wk =   0.0081633
        k(  118) = (   0.4285714  -0.2857143  -0.2000000), wk =   0.0081633
        k(  119) = (   0.4285714  -0.1428571   0.0000000), wk =   0.0081633
        k(  120) = (   0.4285714  -0.1428571   0.2000000), wk =   0.0081633
        k(  121) = (   0.4285714  -0.1428571   0.4000000), wk =   0.0081633
        k(  122) = (   0.4285714  -0.1428571  -0.4000000), wk =   0.0081633
        k(  123) = (   0.4285714  -0.1428571  -0.2000000), wk =   0.0081633

     Dense  grid:   463333 G-vectors     FFT dimensions: (  96,  96, 125)

     Smooth grid:   163851 G-vectors     FFT dimensions: (  72,  72,  90)

     Dynamical RAM for                 wfc:      37.80 MB

     Dynamical RAM for     wfc (w. buffer):    9336.95 MB

     Dynamical RAM for             U proj.:       1.56 MB

     Dynamical RAM for  U proj. (w. buff.):     385.82 MB

     Dynamical RAM for           str. fact:      21.21 MB

     Dynamical RAM for           local pot:       0.00 MB

     Dynamical RAM for          nlocal pot:     110.59 MB

     Dynamical RAM for                qrad:       9.63 MB

     Dynamical RAM for          rho,v,vnew:      95.15 MB

     Dynamical RAM for               rhoin:      31.72 MB

     Dynamical RAM for            rho*nmix:     226.24 MB

     Dynamical RAM for           G-vectors:      27.76 MB

     Dynamical RAM for          h,s,v(r/c):       0.67 MB

     Dynamical RAM for          <psi|beta>:       0.65 MB

     Dynamical RAM for      wfcinit/wfcrot:      75.94 MB

     Dynamical RAM for           addusdens:    1491.75 MB

     Dynamical RAM for          addusforce:    1817.15 MB

     Dynamical RAM for         addusstress:    1431.65 MB

     Estimated static dynamical RAM per process >       9.86 GB

     Estimated max dynamical RAM per process >      11.86 GB

     Check: negative core charge=   -0.000004
     Generating pointlists ...
     new r_m :   0.1150 (alat units)  1.6531 (a.u.) for type    1
     new r_m :   0.0803 (alat units)  1.1542 (a.u.) for type    2
     new r_m :   0.0803 (alat units)  1.1542 (a.u.) for type    3

     Initial potential from superposition of free atoms

     starting charge     199.9987, renormalised to     201.0000

     HUBBARD ENERGY =    0.2293  (Ry)

     STARTING HUBBARD OCCUPATIONS:

     =================== HUBBARD OCCUPATIONS ===================
     ------------------------ ATOM    1 ------------------------
     Tr[ns(  1)] (up, down, total) =   5.00000  2.00000  7.00000
     Atomic magnetic moment for atom   1 =   3.00000
     SPIN  1
     eigenvalues:
       1.000  1.000  1.000  1.000  1.000
     eigenvectors (columns):
       1.000  0.000  0.000  0.000  0.000
       0.000  1.000  0.000  0.000  0.000
       0.000  0.000  1.000  0.000  0.000
       0.000  0.000  0.000  1.000  0.000
       0.000  0.000  0.000  0.000  1.000
     occupation matrix ns (before diag.):
       1.000  0.000  0.000  0.000  0.000
       0.000  1.000  0.000  0.000  0.000
       0.000  0.000  1.000  0.000  0.000
       0.000  0.000  0.000  1.000  0.000
       0.000  0.000  0.000  0.000  1.000
     SPIN  2
     eigenvalues:
       0.400  0.400  0.400  0.400  0.400
     eigenvectors (columns):
       1.000  0.000  0.000  0.000  0.000
       0.000  1.000  0.000  0.000  0.000
       0.000  0.000  1.000  0.000  0.000
       0.000  0.000  0.000  1.000  0.000
       0.000  0.000  0.000  0.000  1.000
     occupation matrix ns (before diag.):
       0.400  0.000  0.000  0.000  0.000
       0.000  0.400  0.000  0.000  0.000
       0.000  0.000  0.400  0.000  0.000
       0.000  0.000  0.000  0.400  0.000
       0.000  0.000  0.000  0.000  0.400

     Number of occupied Hubbard levels =    7.0000

     Atomic wfc used for Hubbard projectors are orthogonalized

     Starting wfcs are  141 randomized atomic wfcs
     Checking if some PAW data can be deallocated... 

     total cpu time spent up to now is       16.7 secs

     Self-consistent Calculation
[tb_dev] Currently allocated     1.70E+00 Mbytes, locked:    0 /   3
[tb_pin] Currently allocated     0.00E+00 Mbytes, locked:    0 /   0

     iteration #  1     ecut=    50.00 Ry     beta= 0.70
     CG style diagonalization

---- Real-time Memory Report at c_bands before calling an iterative solver
         10641 MiB given to the printing process from OS
             0 MiB allocation reported by mallinfo(arena+hblkhd)
        460627 MiB available memory on the node where the printing process lives
     GPU memory used/free/total (MiB): 3588 / 61356 / 64944
------------------
     ethr =  1.00E-02,  avg # of iterations =  3.2

     =================== HUBBARD OCCUPATIONS ===================
     ------------------------ ATOM    1 ------------------------
     Tr[ns(  1)] (up, down, total) =   4.98668  3.60540  8.59209
     Atomic magnetic moment for atom   1 =   1.38128
     SPIN  1
     eigenvalues:
       0.996  0.997  0.998  0.998  0.998
     eigenvectors (columns):
       0.019 -0.423 -0.331  0.811  0.229
       0.129  0.682 -0.690  0.013  0.205
      -0.956 -0.078 -0.244 -0.131  0.047
      -0.157  0.349  0.536  0.199  0.726
      -0.209  0.477  0.260  0.533 -0.613
     occupation matrix ns (before diag.):
       0.998  0.000 -0.000  0.000  0.000
       0.000  0.997  0.000  0.000 -0.000
      -0.000  0.000  0.996 -0.000 -0.000
       0.000  0.000 -0.000  0.998 -0.000
       0.000 -0.000 -0.000 -0.000  0.998
     SPIN  2
     eigenvalues:
       0.238  0.282  1.015  1.020  1.051
     eigenvectors (columns):
      -0.408 -0.140  0.178  0.722  0.511
       0.053  0.661  0.674 -0.193  0.261
       0.625 -0.538  0.247 -0.154  0.484
       0.350 -0.096  0.457  0.512 -0.630
       0.563  0.494 -0.494  0.394  0.200
     occupation matrix ns (before diag.):
       0.883  0.089  0.152  0.092  0.234
       0.089  0.695  0.240  0.026 -0.261
       0.152  0.240  0.507 -0.219 -0.075
       0.092  0.026 -0.219  0.928 -0.122
       0.234 -0.261 -0.075 -0.122  0.592

     Number of occupied Hubbard levels =    8.5921

     HUBBARD ENERGY =    0.0588  (Ry)

     total cpu time spent up to now is      324.5 secs

     total energy              =   -1385.84394818 Ry
     estimated scf accuracy    <      11.03631759 Ry

     total magnetization       =     9.00 Bohr mag/cell
     absolute magnetization    =    13.23 Bohr mag/cell
[tb_dev] Currently allocated     0.00E+00 Mbytes, locked:    0 /   0
[tb_pin] Currently allocated     0.00E+00 Mbytes, locked:    0 /   0

     iteration #  2     ecut=    50.00 Ry     beta= 0.70
     CG style diagonalization

---- Real-time Memory Report at c_bands before calling an iterative solver
         10709 MiB given to the printing process from OS
             0 MiB allocation reported by mallinfo(arena+hblkhd)
        460554 MiB available memory on the node where the printing process lives
     GPU memory used/free/total (MiB): 3676 / 61268 / 64944
------------------
     c_bands:  1 eigenvalues not converged
     c_bands:  2 eigenvalues not converged
     c_bands:  2 eigenvalues not converged
     c_bands:  1 eigenvalues not converged
     c_bands:  1 eigenvalues not converged
     c_bands:  1 eigenvalues not converged
     c_bands:  1 eigenvalues not converged
     c_bands:  1 eigenvalues not converged
     c_bands:  2 eigenvalues not converged
     c_bands:  1 eigenvalues not converged
     c_bands:  1 eigenvalues not converged
     c_bands:  1 eigenvalues not converged
     c_bands:  1 eigenvalues not converged
     c_bands:  1 eigenvalues not converged
     c_bands:  1 eigenvalues not converged
     c_bands:  2 eigenvalues not converged
     c_bands:  2 eigenvalues not converged
     c_bands:  2 eigenvalues not converged
     c_bands:  1 eigenvalues not converged
     c_bands:  1 eigenvalues not converged
     c_bands:  1 eigenvalues not converged
     c_bands:  1 eigenvalues not converged
     c_bands:  1 eigenvalues not converged
     c_bands:  1 eigenvalues not converged
     c_bands:  1 eigenvalues not converged
     c_bands:  1 eigenvalues not converged
     c_bands:  1 eigenvalues not converged
     c_bands:  1 eigenvalues not converged
     c_bands:  1 eigenvalues not converged
     c_bands:  1 eigenvalues not converged
     c_bands:  1 eigenvalues not converged
     c_bands:  1 eigenvalues not converged
     c_bands:  1 eigenvalues not converged
     c_bands:  1 eigenvalues not converged
     c_bands:  1 eigenvalues not converged
     c_bands:  1 eigenvalues not converged
     c_bands:  1 eigenvalues not converged
     c_bands:  1 eigenvalues not converged
     c_bands:  1 eigenvalues not converged
     c_bands:  1 eigenvalues not converged
     c_bands:  1 eigenvalues not converged
     c_bands:  1 eigenvalues not converged
     c_bands:  1 eigenvalues not converged
     c_bands:  1 eigenvalues not converged
     c_bands:  1 eigenvalues not converged
     c_bands:  1 eigenvalues not converged
     c_bands:  1 eigenvalues not converged
     c_bands:  1 eigenvalues not converged
     c_bands:  2 eigenvalues not converged
     c_bands:  1 eigenvalues not converged
     ethr =  5.49E-03,  avg # of iterations =  5.9

     =================== HUBBARD OCCUPATIONS ===================
     ------------------------ ATOM    1 ------------------------
     Tr[ns(  1)] (up, down, total) =   0.06671  0.03754  0.10424
     Atomic magnetic moment for atom   1 =   0.02917
     SPIN  1
     eigenvalues:
       0.003  0.004  0.005  0.023  0.032
     eigenvectors (columns):
       0.457 -0.654  0.417 -0.124 -0.417
       0.247  0.348  0.644 -0.404  0.490
      -0.074  0.081  0.498  0.860  0.034
       0.839  0.147 -0.391  0.276  0.214
      -0.146 -0.650 -0.102  0.078  0.734
     occupation matrix ns (before diag.):
       0.009 -0.005 -0.002 -0.004 -0.009
      -0.005  0.014 -0.006  0.000  0.010
      -0.002 -0.006  0.019  0.005  0.002
      -0.004  0.000  0.005  0.006  0.005
      -0.009  0.010  0.002  0.005  0.019
     SPIN  2
     eigenvalues:
       0.002  0.004  0.004  0.012  0.016
     eigenvectors (columns):
      -0.274  0.553  0.680 -0.383 -0.102
      -0.333 -0.342  0.460  0.658 -0.358
      -0.008 -0.246  0.378  0.087  0.888
      -0.792  0.309 -0.427  0.189  0.241
       0.431  0.650  0.010  0.614  0.120
     occupation matrix ns (before diag.):
       0.005 -0.001 -0.001 -0.001 -0.002
      -0.001  0.009 -0.003 -0.001  0.003
      -0.001 -0.003  0.013  0.003  0.002
      -0.001 -0.001  0.003  0.004  0.002
      -0.002  0.003  0.002  0.002  0.007

     Number of occupied Hubbard levels =    0.1042

     HUBBARD ENERGY =    0.2152  (Ry)

     total cpu time spent up to now is      800.4 secs

     total energy              =   -1368.83728003 Ry
     estimated scf accuracy    <     200.20537406 Ry

     total magnetization       =     2.60 Bohr mag/cell
     absolute magnetization    =     4.80 Bohr mag/cell
[tb_dev] Currently allocated     0.00E+00 Mbytes, locked:    0 /   0
[tb_pin] Currently allocated     0.00E+00 Mbytes, locked:    0 /   0

     iteration #  3     ecut=    50.00 Ry     beta= 0.70
     CG style diagonalization

---- Real-time Memory Report at c_bands before calling an iterative solver
         10726 MiB given to the printing process from OS
             0 MiB allocation reported by mallinfo(arena+hblkhd)
        460529 MiB available memory on the node where the printing process lives
     GPU memory used/free/total (MiB): 3676 / 61268 / 64944
------------------
     c_bands:  2 eigenvalues not converged
     c_bands:  1 eigenvalues not converged
     c_bands:  1 eigenvalues not converged
     c_bands:  1 eigenvalues not converged
     c_bands:  1 eigenvalues not converged
     c_bands:  1 eigenvalues not converged
     c_bands:  2 eigenvalues not converged
     c_bands:  2 eigenvalues not converged
     c_bands:  1 eigenvalues not converged
     c_bands:  1 eigenvalues not converged
     c_bands:  2 eigenvalues not converged
     c_bands:  1 eigenvalues not converged
     c_bands:  2 eigenvalues not converged
     c_bands:  1 eigenvalues not converged
     c_bands:  1 eigenvalues not converged
     c_bands:  1 eigenvalues not converged
     c_bands:  1 eigenvalues not converged
     c_bands:  1 eigenvalues not converged
     c_bands:  1 eigenvalues not converged
     c_bands:  1 eigenvalues not converged
     c_bands:  3 eigenvalues not converged
     c_bands:  2 eigenvalues not converged
     c_bands:  1 eigenvalues not converged
     c_bands:  1 eigenvalues not converged
     c_bands:  1 eigenvalues not converged
     c_bands:  1 eigenvalues not converged
     c_bands:  1 eigenvalues not converged
     c_bands:  1 eigenvalues not converged
     c_bands:  1 eigenvalues not converged
     c_bands:  2 eigenvalues not converged
     c_bands:  1 eigenvalues not converged
     c_bands:  1 eigenvalues not converged
     c_bands:  1 eigenvalues not converged
     c_bands:  1 eigenvalues not converged
     c_bands:  1 eigenvalues not converged
     c_bands:  1 eigenvalues not converged
     c_bands:  1 eigenvalues not converged
     c_bands:  2 eigenvalues not converged
     c_bands:  1 eigenvalues not converged
     c_bands:  1 eigenvalues not converged
     c_bands:  2 eigenvalues not converged
     c_bands:  1 eigenvalues not converged
     c_bands:  1 eigenvalues not converged
     c_bands:  1 eigenvalues not converged
     c_bands:  1 eigenvalues not converged
     c_bands:  2 eigenvalues not converged
     c_bands:  1 eigenvalues not converged
     c_bands:  1 eigenvalues not converged
     c_bands:  1 eigenvalues not converged
     c_bands:  1 eigenvalues not converged
     c_bands:  1 eigenvalues not converged
     c_bands:  2 eigenvalues not converged
     c_bands:  1 eigenvalues not converged
     c_bands:  1 eigenvalues not converged
     c_bands:  1 eigenvalues not converged
     c_bands:  1 eigenvalues not converged
     c_bands:  1 eigenvalues not converged
     c_bands:  2 eigenvalues not converged
     c_bands:  1 eigenvalues not converged
     c_bands:  1 eigenvalues not converged
     c_bands:  1 eigenvalues not converged
     c_bands:  1 eigenvalues not converged
     c_bands:  1 eigenvalues not converged
     c_bands:  1 eigenvalues not converged
     c_bands:  1 eigenvalues not converged
     c_bands:  1 eigenvalues not converged
     c_bands:  2 eigenvalues not converged
     c_bands:  1 eigenvalues not converged
     c_bands:  1 eigenvalues not converged
     c_bands:  1 eigenvalues not converged
     c_bands:  1 eigenvalues not converged
     c_bands:  2 eigenvalues not converged
     c_bands:  2 eigenvalues not converged
     c_bands:  2 eigenvalues not converged
     c_bands:  1 eigenvalues not converged
     c_bands:  1 eigenvalues not converged
     c_bands:  1 eigenvalues not converged
     c_bands:  1 eigenvalues not converged
     c_bands:  1 eigenvalues not converged
     c_bands:  1 eigenvalues not converged
     c_bands:  1 eigenvalues not converged
     c_bands:  1 eigenvalues not converged
     c_bands:  1 eigenvalues not converged
     c_bands:  1 eigenvalues not converged
     c_bands:  1 eigenvalues not converged
     c_bands:  1 eigenvalues not converged
     ethr =  5.49E-03,  avg # of iterations =  5.6

     =================== HUBBARD OCCUPATIONS ===================
     ------------------------ ATOM    1 ------------------------
     Tr[ns(  1)] (up, down, total) =   4.91395  3.27087  8.18482
     Atomic magnetic moment for atom   1 =   1.64308
     SPIN  1
     eigenvalues:
       0.967  0.973  0.989  0.993  0.993
     eigenvectors (columns):
      -0.057 -0.392  0.597 -0.269  0.644
       0.605  0.273  0.237 -0.655 -0.272
      -0.708  0.528  0.371 -0.225 -0.179
      -0.079  0.350 -0.600 -0.392  0.598
       0.352  0.608  0.301  0.542  0.349
     occupation matrix ns (before diag.):
       0.988  0.003  0.002  0.004  0.005
       0.003  0.982  0.008 -0.000 -0.009
       0.002  0.008  0.974 -0.004 -0.000
       0.004 -0.000 -0.004  0.989 -0.003
       0.005 -0.009 -0.000 -0.003  0.982
     SPIN  2
     eigenvalues:
       0.163  0.236  0.948  0.955  0.968
     eigenvectors (columns):
      -0.410 -0.086 -0.630 -0.064 -0.650
       0.164  0.647 -0.455 -0.506  0.302
       0.535 -0.645 -0.172 -0.517 -0.035
       0.329 -0.120 -0.585  0.663  0.310
       0.641  0.379  0.156  0.180 -0.623
     occupation matrix ns (before diag.):
       0.819  0.089  0.133  0.094  0.238
       0.089  0.633  0.230  0.013 -0.262
       0.133  0.230  0.429 -0.196 -0.095
       0.094  0.013 -0.196  0.858 -0.136
       0.238 -0.262 -0.095 -0.136  0.531

     Number of occupied Hubbard levels =    8.1848

     HUBBARD ENERGY =    0.1993  (Ry)

     total cpu time spent up to now is     1246.6 secs

     total energy              =   -1386.58349515 Ry
     estimated scf accuracy    <       6.55016047 Ry

     total magnetization       =     1.26 Bohr mag/cell
     absolute magnetization    =     6.30 Bohr mag/cell
[tb_dev] Currently allocated     0.00E+00 Mbytes, locked:    0 /   0
[tb_pin] Currently allocated     0.00E+00 Mbytes, locked:    0 /   0

     iteration #  4     ecut=    50.00 Ry     beta= 0.70
     CG style diagonalization

---- Real-time Memory Report at c_bands before calling an iterative solver
         10742 MiB given to the printing process from OS
             0 MiB allocation reported by mallinfo(arena+hblkhd)
        460509 MiB available memory on the node where the printing process lives
     GPU memory used/free/total (MiB): 3676 / 61268 / 64944
------------------
     c_bands:  1 eigenvalues not converged
     ethr =  3.26E-03,  avg # of iterations =  3.7

     =================== HUBBARD OCCUPATIONS ===================
     ------------------------ ATOM    1 ------------------------
     Tr[ns(  1)] (up, down, total) =   5.05469  1.88922  6.94391
     Atomic magnetic moment for atom   1 =   3.16547
     SPIN  1
     eigenvalues:
       0.993  0.994  0.995  1.023  1.050
     eigenvectors (columns):
      -0.460  0.488  0.598  0.148 -0.413
      -0.344 -0.583  0.301  0.581  0.338
      -0.534 -0.208  0.138 -0.759  0.277
       0.615 -0.060  0.727 -0.202  0.223
      -0.082  0.612 -0.072  0.156  0.767
     occupation matrix ns (before diag.):
       1.004 -0.005 -0.010 -0.005 -0.017
      -0.005  1.010 -0.008  0.001  0.017
      -0.010 -0.008  1.015  0.008  0.008
      -0.005  0.001  0.008  0.998  0.009
      -0.017  0.017  0.008  0.009  1.027
     SPIN  2
     eigenvalues:
       0.073  0.080  0.379  0.499  0.857
     eigenvectors (columns):
       0.333  0.217 -0.775 -0.255  0.420
       0.033 -0.657 -0.132  0.601  0.435
      -0.714  0.440  0.046  0.155  0.519
      -0.378  0.034 -0.600  0.363 -0.604
      -0.484 -0.571 -0.143 -0.647  0.023
     occupation matrix ns (before diag.):
       0.423  0.108  0.144 -0.096  0.111
       0.108  0.383  0.213 -0.089 -0.149
       0.144  0.213  0.297 -0.230 -0.037
      -0.096 -0.089 -0.230  0.525 -0.085
       0.111 -0.149 -0.037 -0.085  0.260

     Number of occupied Hubbard levels =    6.9439

     HUBBARD ENERGY =    0.2119  (Ry)

     total cpu time spent up to now is     1512.3 secs

     total energy              =   -1396.99173941 Ry
     estimated scf accuracy    <       3.21624667 Ry

     total magnetization       =     9.37 Bohr mag/cell
     absolute magnetization    =    10.87 Bohr mag/cell
[tb_dev] Currently allocated     0.00E+00 Mbytes, locked:    0 /   0
[tb_pin] Currently allocated     0.00E+00 Mbytes, locked:    0 /   0

     iteration #  5     ecut=    50.00 Ry     beta= 0.70
     CG style diagonalization

---- Real-time Memory Report at c_bands before calling an iterative solver
         10761 MiB given to the printing process from OS
             0 MiB allocation reported by mallinfo(arena+hblkhd)
        460489 MiB available memory on the node where the printing process lives
     GPU memory used/free/total (MiB): 3676 / 61268 / 64944
------------------
     ethr =  1.60E-03,  avg # of iterations =  3.2

     =================== HUBBARD OCCUPATIONS ===================
     ------------------------ ATOM    1 ------------------------
     Tr[ns(  1)] (up, down, total) =   4.98985  3.21011  8.19996
     Atomic magnetic moment for atom   1 =   1.77974
     SPIN  1
     eigenvalues:
       0.996  0.998  0.998  0.999  0.999
     eigenvectors (columns):
      -0.082 -0.505 -0.168  0.724 -0.433
      -0.063  0.635  0.571  0.332 -0.396
       0.906 -0.232  0.293 -0.095 -0.173
       0.351  0.524 -0.743  0.121 -0.187
       0.211  0.118  0.085  0.585  0.769
     occupation matrix ns (before diag.):
       0.999  0.000  0.000  0.000  0.000
       0.000  0.998  0.000 -0.000 -0.000
       0.000  0.000  0.996 -0.001 -0.001
       0.000 -0.000 -0.001  0.998 -0.000
       0.000 -0.000 -0.001 -0.000  0.999
     SPIN  2
     eigenvalues:
       0.128  0.160  0.928  0.993  1.001
     eigenvectors (columns):
      -0.281 -0.307  0.352  0.790  0.281
      -0.245  0.614  0.435  0.166 -0.588
       0.807 -0.202  0.027  0.349 -0.430
       0.355  0.078  0.769 -0.332  0.409
       0.289  0.694 -0.308  0.341  0.474
     occupation matrix ns (before diag.):
       0.839  0.086  0.143  0.089  0.255
       0.086  0.617  0.276  0.012 -0.288
       0.143  0.276  0.396 -0.238 -0.086
       0.089  0.012 -0.238  0.842 -0.117
       0.255 -0.288 -0.086 -0.117  0.516

     Number of occupied Hubbard levels =    8.2000

     HUBBARD ENERGY =    0.2009  (Ry)

     total cpu time spent up to now is     1737.5 secs

     total energy              =   -1397.73436894 Ry
     estimated scf accuracy    <       3.66283107 Ry

     total magnetization       =     9.02 Bohr mag/cell
     absolute magnetization    =    10.35 Bohr mag/cell
[tb_dev] Currently allocated     0.00E+00 Mbytes, locked:    0 /   0
[tb_pin] Currently allocated     0.00E+00 Mbytes, locked:    0 /   0

     iteration #  6     ecut=    50.00 Ry     beta= 0.70
     CG style diagonalization

---- Real-time Memory Report at c_bands before calling an iterative solver
         10779 MiB given to the printing process from OS
             0 MiB allocation reported by mallinfo(arena+hblkhd)
        460468 MiB available memory on the node where the printing process lives
     GPU memory used/free/total (MiB): 3676 / 61268 / 64944
------------------
     ethr =  1.60E-03,  avg # of iterations =  3.0

     =================== HUBBARD OCCUPATIONS ===================
     ------------------------ ATOM    1 ------------------------
     Tr[ns(  1)] (up, down, total) =   4.77216  1.22194  5.99410
     Atomic magnetic moment for atom   1 =   3.55022
     SPIN  1
     eigenvalues:
       0.767  0.997  0.998  1.001  1.009
     eigenvectors (columns):
      -0.122  0.400 -0.101  0.762  0.484
       0.675  0.372 -0.513 -0.300  0.229
      -0.387  0.785 -0.023 -0.196 -0.441
      -0.089 -0.263 -0.737  0.348 -0.508
       0.609  0.128  0.427  0.411 -0.511
     occupation matrix ns (before diag.):
       0.999  0.020 -0.014 -0.004  0.015
       0.020  0.893  0.059  0.012 -0.097
      -0.014  0.059  0.965 -0.005  0.057
      -0.004  0.012 -0.005  0.999  0.016
       0.015 -0.097  0.057  0.016  0.916
     SPIN  2
     eigenvalues:
       0.082  0.105  0.213  0.285  0.537
     eigenvectors (columns):
      -0.267 -0.317 -0.572 -0.574  0.415
      -0.099  0.662 -0.391  0.415  0.476
       0.799 -0.341 -0.030  0.179  0.460
       0.364  0.084 -0.688  0.020 -0.623
       0.384  0.581  0.215 -0.683  0.043
     occupation matrix ns (before diag.):
       0.272  0.066  0.071 -0.069  0.067
       0.066  0.250  0.111 -0.097 -0.050
       0.071  0.111  0.187 -0.128 -0.021
      -0.069 -0.097 -0.128  0.320 -0.033
       0.067 -0.050 -0.021 -0.033  0.191

     Number of occupied Hubbard levels =    5.9941

     HUBBARD ENERGY =    0.2089  (Ry)

     total cpu time spent up to now is     1939.5 secs

     total energy              =   -1398.34736559 Ry
     estimated scf accuracy    <       2.61852400 Ry

     total magnetization       =     7.73 Bohr mag/cell
     absolute magnetization    =     9.37 Bohr mag/cell
[tb_dev] Currently allocated     0.00E+00 Mbytes, locked:    0 /   0
[tb_pin] Currently allocated     0.00E+00 Mbytes, locked:    0 /   0

     iteration #  7     ecut=    50.00 Ry     beta= 0.70
     CG style diagonalization

---- Real-time Memory Report at c_bands before calling an iterative solver
         10800 MiB given to the printing process from OS
             0 MiB allocation reported by mallinfo(arena+hblkhd)
        460446 MiB available memory on the node where the printing process lives
     GPU memory used/free/total (MiB): 3676 / 61268 / 64944
------------------
     ethr =  1.30E-03,  avg # of iterations =  3.0

     =================== HUBBARD OCCUPATIONS ===================
     ------------------------ ATOM    1 ------------------------
     Tr[ns(  1)] (up, down, total) =   4.95139  2.77068  7.72207
     Atomic magnetic moment for atom   1 =   2.18071
     SPIN  1
     eigenvalues:
       0.960  0.996  0.998  0.999  0.999
     eigenvectors (columns):
      -0.054  0.252  0.858  0.256 -0.364
       0.662 -0.106  0.031 -0.557 -0.490
      -0.440 -0.794  0.277 -0.312 -0.050
      -0.086 -0.256 -0.387  0.539 -0.698
       0.599 -0.480  0.191  0.486  0.372
     occupation matrix ns (before diag.):
       0.998  0.001 -0.000  0.000  0.002
       0.001  0.982  0.011  0.002 -0.016
      -0.000  0.011  0.989 -0.002  0.009
       0.000  0.002 -0.002  0.998  0.002
       0.002 -0.016  0.009  0.002  0.984
     SPIN  2
     eigenvalues:
       0.113  0.147  0.632  0.891  0.988
     eigenvectors (columns):
      -0.316 -0.284 -0.524  0.580  0.456
      -0.123  0.658 -0.385 -0.448  0.451
       0.766 -0.342 -0.022 -0.174  0.515
       0.370  0.025 -0.735 -0.005 -0.567
       0.401  0.608  0.189  0.658  0.037
     occupation matrix ns (before diag.):
       0.702  0.077  0.136 -0.028  0.254
       0.077  0.539  0.261 -0.075 -0.238
       0.136  0.261  0.373 -0.247 -0.082
      -0.028 -0.075 -0.247  0.675 -0.093
       0.254 -0.238 -0.082 -0.093  0.482

     Number of occupied Hubbard levels =    7.7221

     HUBBARD ENERGY =    0.1971  (Ry)

     total cpu time spent up to now is     2141.3 secs

     total energy              =   -1398.26546262 Ry
     estimated scf accuracy    <       2.74456427 Ry

     total magnetization       =     7.51 Bohr mag/cell
     absolute magnetization    =     8.80 Bohr mag/cell
[tb_dev] Currently allocated     0.00E+00 Mbytes, locked:    0 /   0
[tb_pin] Currently allocated     0.00E+00 Mbytes, locked:    0 /   0

     iteration #  8     ecut=    50.00 Ry     beta= 0.70
     CG style diagonalization

---- Real-time Memory Report at c_bands before calling an iterative solver
         10821 MiB given to the printing process from OS
             0 MiB allocation reported by mallinfo(arena+hblkhd)
        460422 MiB available memory on the node where the printing process lives
     GPU memory used/free/total (MiB): 3676 / 61268 / 64944
------------------
     ethr =  1.30E-03,  avg # of iterations =  3.0

     =================== HUBBARD OCCUPATIONS ===================
     ------------------------ ATOM    1 ------------------------
     Tr[ns(  1)] (up, down, total) =   4.88152  1.07648  5.95800
     Atomic magnetic moment for atom   1 =   3.80503
     SPIN  1
     eigenvalues:
       0.884  0.997  0.999  0.999  1.003
     eigenvectors (columns):
      -0.080  0.346 -0.311  0.494 -0.730
       0.683  0.344  0.543 -0.203 -0.281
      -0.436  0.831  0.100 -0.179  0.278
      -0.095 -0.042  0.571  0.769  0.267
       0.572  0.265 -0.521  0.302  0.489
     occupation matrix ns (before diag.):
       1.000  0.007 -0.005 -0.002  0.004
       0.007  0.945  0.034  0.007 -0.046
      -0.005  0.034  0.976 -0.004  0.029
      -0.002  0.007 -0.004  0.998  0.007
       0.004 -0.046  0.029  0.007  0.962
     SPIN  2
     eigenvalues:
       0.083  0.104  0.165  0.245  0.479
     eigenvectors (columns):
      -0.182 -0.351 -0.544  0.602  0.430
      -0.144  0.659 -0.375 -0.369  0.518
       0.835 -0.265  0.016 -0.200  0.438
       0.359  0.129 -0.706 -0.029 -0.596
       0.345  0.596  0.254  0.679  0.003
     occupation matrix ns (before diag.):
       0.242  0.064  0.056 -0.074  0.051
       0.064  0.232  0.098 -0.097 -0.039
       0.056  0.098  0.167 -0.104 -0.024
      -0.074 -0.097 -0.104  0.265 -0.017
       0.051 -0.039 -0.024 -0.017  0.170

     Number of occupied Hubbard levels =    5.9580

     HUBBARD ENERGY =    0.1938  (Ry)

     total cpu time spent up to now is     2343.0 secs

     total energy              =   -1398.51227118 Ry
     estimated scf accuracy    <       1.85376508 Ry

     total magnetization       =     8.21 Bohr mag/cell
     absolute magnetization    =     9.34 Bohr mag/cell
[tb_dev] Currently allocated     0.00E+00 Mbytes, locked:    0 /   0
[tb_pin] Currently allocated     0.00E+00 Mbytes, locked:    0 /   0

     iteration #  9     ecut=    50.00 Ry     beta= 0.70
     CG style diagonalization

---- Real-time Memory Report at c_bands before calling an iterative solver
         10831 MiB given to the printing process from OS
             0 MiB allocation reported by mallinfo(arena+hblkhd)
        460409 MiB available memory on the node where the printing process lives
     GPU memory used/free/total (MiB): 3676 / 61268 / 64944
------------------
     ethr =  9.22E-04,  avg # of iterations =  3.0

     =================== HUBBARD OCCUPATIONS ===================
     ------------------------ ATOM    1 ------------------------
     Tr[ns(  1)] (up, down, total) =   4.92923  1.46916  6.39839
     Atomic magnetic moment for atom   1 =   3.46007
     SPIN  1
     eigenvalues:
       0.933  0.997  0.999  0.999  1.001
     eigenvectors (columns):
       0.159  0.076  0.802 -0.393  0.414
      -0.663  0.220 -0.329 -0.537  0.340
       0.342  0.930 -0.129  0.015 -0.038
       0.044 -0.025  0.094 -0.616 -0.780
      -0.646  0.283  0.473  0.420 -0.321
     occupation matrix ns (before diag.):
       0.998  0.007 -0.004 -0.001  0.006
       0.007  0.970  0.014  0.002 -0.029
      -0.004  0.014  0.989 -0.001  0.014
      -0.001  0.002 -0.001  1.000  0.002
       0.006 -0.029  0.014  0.002  0.972
     SPIN  2
     eigenvalues:
       0.091  0.121  0.212  0.322  0.723
     eigenvectors (columns):
      -0.195 -0.356 -0.612 -0.541  0.410
      -0.139  0.661 -0.409  0.419  0.448
       0.825 -0.243  0.034  0.184  0.474
       0.403  0.078 -0.650  0.057 -0.637
       0.315  0.610  0.183 -0.703  0.024
     occupation matrix ns (before diag.):
       0.314  0.087  0.100 -0.125  0.074
       0.087  0.292  0.146 -0.141 -0.058
       0.100  0.146  0.243 -0.192 -0.026
      -0.125 -0.141 -0.192  0.399 -0.032
       0.074 -0.058 -0.026 -0.032  0.221

     Number of occupied Hubbard levels =    6.3984

     HUBBARD ENERGY =    0.1859  (Ry)

     total cpu time spent up to now is     2545.0 secs

     total energy              =   -1398.51768306 Ry
     estimated scf accuracy    <       1.43803096 Ry

     total magnetization       =     8.87 Bohr mag/cell
     absolute magnetization    =     9.82 Bohr mag/cell
[tb_dev] Currently allocated     0.00E+00 Mbytes, locked:    0 /   0
[tb_pin] Currently allocated     0.00E+00 Mbytes, locked:    0 /   0

     iteration # 10     ecut=    50.00 Ry     beta= 0.70
     CG style diagonalization

---- Real-time Memory Report at c_bands before calling an iterative solver
         10846 MiB given to the printing process from OS
             0 MiB allocation reported by mallinfo(arena+hblkhd)
        460392 MiB available memory on the node where the printing process lives
     GPU memory used/free/total (MiB): 3676 / 61268 / 64944
------------------
     c_bands:  1 eigenvalues not converged
     ethr =  7.15E-04,  avg # of iterations =  3.0

     =================== HUBBARD OCCUPATIONS ===================
     ------------------------ ATOM    1 ------------------------
     Tr[ns(  1)] (up, down, total) =   4.88647  0.99665  5.88312
     Atomic magnetic moment for atom   1 =   3.88981
     SPIN  1
     eigenvalues:
       0.890  0.997  0.999  1.000  1.001
     eigenvectors (columns):
      -0.115 -0.163  0.027  0.815  0.543
       0.689 -0.264 -0.577 -0.148  0.317
      -0.376 -0.905 -0.037 -0.174 -0.088
      -0.105  0.046 -0.614  0.443 -0.643
       0.600 -0.286  0.537  0.294 -0.428
     occupation matrix ns (before diag.):
       0.998  0.009 -0.005 -0.002  0.007
       0.009  0.947  0.028  0.008 -0.046
      -0.005  0.028  0.982 -0.004  0.024
      -0.002  0.008 -0.004  0.999  0.008
       0.007 -0.046  0.024  0.008  0.960
     SPIN  2
     eigenvalues:
       0.080  0.106  0.140  0.222  0.449
     eigenvectors (columns):
      -0.118 -0.370 -0.591 -0.589  0.391
      -0.092  0.658 -0.430  0.362  0.492
       0.849 -0.253  0.070  0.195  0.415
       0.407  0.133 -0.620  0.021 -0.657
       0.302  0.590  0.278 -0.695  0.022
     occupation matrix ns (before diag.):
       0.210  0.050  0.043 -0.076  0.046
       0.050  0.210  0.079 -0.100 -0.029
       0.043  0.079  0.151 -0.104 -0.019
      -0.076 -0.100 -0.104  0.263 -0.016
       0.046 -0.029 -0.019 -0.016  0.162

     Number of occupied Hubbard levels =    5.8831

     HUBBARD ENERGY =    0.1788  (Ry)

     total cpu time spent up to now is     2747.1 secs

     total energy              =   -1398.55381476 Ry
     estimated scf accuracy    <       1.72527965 Ry

     total magnetization       =     8.18 Bohr mag/cell
     absolute magnetization    =     9.15 Bohr mag/cell
[tb_dev] Currently allocated     0.00E+00 Mbytes, locked:    0 /   0
[tb_pin] Currently allocated     0.00E+00 Mbytes, locked:    0 /   0

     iteration # 11     ecut=    50.00 Ry     beta= 0.70
     CG style diagonalization

---- Real-time Memory Report at c_bands before calling an iterative solver
         10846 MiB given to the printing process from OS
             0 MiB allocation reported by mallinfo(arena+hblkhd)
        460390 MiB available memory on the node where the printing process lives
     GPU memory used/free/total (MiB): 3676 / 61268 / 64944
------------------
     ethr =  7.15E-04,  avg # of iterations =  3.0

     =================== HUBBARD OCCUPATIONS ===================
     ------------------------ ATOM    1 ------------------------
     Tr[ns(  1)] (up, down, total) =   4.96257  1.42603  6.38860
     Atomic magnetic moment for atom   1 =   3.53654
     SPIN  1
     eigenvalues:
       0.969  0.996  0.999  0.999  0.999
     eigenvectors (columns):
      -0.085 -0.145  0.711  0.683 -0.016
       0.700  0.201 -0.101  0.221 -0.641
      -0.405  0.865  0.185 -0.065 -0.222
      -0.120  0.199 -0.631  0.690  0.268
       0.569  0.388  0.229 -0.070  0.684
     occupation matrix ns (before diag.):
       0.999  0.002 -0.001 -0.000  0.002
       0.002  0.984  0.008  0.002 -0.012
      -0.001  0.008  0.992 -0.002  0.006
      -0.000  0.002 -0.002  0.998  0.002
       0.002 -0.012  0.006  0.002  0.989
     SPIN  2
     eigenvalues:
       0.090  0.114  0.153  0.260  0.809
     eigenvectors (columns):
       0.204 -0.329  0.589 -0.580  0.408
       0.069  0.688  0.402  0.373  0.469
      -0.788 -0.322 -0.056  0.191  0.486
      -0.441  0.062  0.651  0.040 -0.614
      -0.373  0.557 -0.254 -0.697  0.010
     occupation matrix ns (before diag.):
       0.292  0.110  0.124 -0.160  0.058
       0.110  0.294  0.169 -0.187 -0.038
       0.124  0.169  0.269 -0.216 -0.023
      -0.160 -0.187 -0.216  0.388 -0.019
       0.058 -0.038 -0.023 -0.019  0.184

     Number of occupied Hubbard levels =    6.3886

     HUBBARD ENERGY =    0.1666  (Ry)

     total cpu time spent up to now is     2949.4 secs

     total energy              =   -1398.55191295 Ry
     estimated scf accuracy    <       0.71244884 Ry

     total magnetization       =     8.93 Bohr mag/cell
     absolute magnetization    =     9.58 Bohr mag/cell
[tb_dev] Currently allocated     0.00E+00 Mbytes, locked:    0 /   0
[tb_pin] Currently allocated     0.00E+00 Mbytes, locked:    0 /   0

     iteration # 12     ecut=    50.00 Ry     beta= 0.70
     CG style diagonalization

---- Real-time Memory Report at c_bands before calling an iterative solver
         10846 MiB given to the printing process from OS
             0 MiB allocation reported by mallinfo(arena+hblkhd)
        456921 MiB available memory on the node where the printing process lives
     GPU memory used/free/total (MiB): 3676 / 61268 / 64944
------------------
     c_bands:  1 eigenvalues not converged
     c_bands:  1 eigenvalues not converged
     c_bands:  1 eigenvalues not converged
     c_bands:  1 eigenvalues not converged
     c_bands:  1 eigenvalues not converged
     c_bands:  1 eigenvalues not converged
     c_bands:  1 eigenvalues not converged
     c_bands:  2 eigenvalues not converged
     c_bands:  1 eigenvalues not converged
     c_bands:  1 eigenvalues not converged
     c_bands:  1 eigenvalues not converged
     c_bands:  1 eigenvalues not converged
     c_bands:  1 eigenvalues not converged
     c_bands:  1 eigenvalues not converged
     c_bands:  1 eigenvalues not converged
     c_bands:  1 eigenvalues not converged
     c_bands:  1 eigenvalues not converged
     c_bands:  2 eigenvalues not converged
     c_bands:  2 eigenvalues not converged
     c_bands:  1 eigenvalues not converged
     c_bands:  1 eigenvalues not converged
     c_bands:  1 eigenvalues not converged
     c_bands:  1 eigenvalues not converged
     c_bands:  1 eigenvalues not converged
     c_bands:  1 eigenvalues not converged
     c_bands:  1 eigenvalues not converged
     c_bands:  1 eigenvalues not converged
     c_bands:  1 eigenvalues not converged
     c_bands:  1 eigenvalues not converged
     c_bands:  1 eigenvalues not converged
     c_bands:  1 eigenvalues not converged
     c_bands:  1 eigenvalues not converged
     ethr =  3.54E-04,  avg # of iterations =  3.2

     =================== HUBBARD OCCUPATIONS ===================
     ------------------------ ATOM    1 ------------------------
     Tr[ns(  1)] (up, down, total) =   4.96666  1.58324  6.54989
     Atomic magnetic moment for atom   1 =   3.38342
     SPIN  1
     eigenvalues:
       0.973  0.996  0.999  0.999  0.999
     eigenvectors (columns):
       0.106  0.149  0.906 -0.380  0.040
      -0.683 -0.117 -0.071 -0.463 -0.547
       0.381 -0.867  0.109 -0.004 -0.301
       0.095 -0.193 -0.309 -0.725  0.576
      -0.606 -0.418  0.259  0.339  0.526
     occupation matrix ns (before diag.):
       0.999  0.002 -0.001 -0.000  0.002
       0.002  0.987  0.007  0.002 -0.011
      -0.001  0.007  0.993 -0.001  0.005
      -0.000  0.002 -0.001  0.999  0.001
       0.002 -0.011  0.005  0.001  0.989
     SPIN  2
     eigenvalues:
       0.097  0.121  0.145  0.242  0.978
     eigenvectors (columns):
       0.136 -0.341 -0.624  0.557  0.407
       0.017  0.710 -0.405 -0.355  0.453
      -0.762 -0.315  0.157 -0.199  0.506
      -0.535  0.050 -0.580 -0.043 -0.611
      -0.339  0.527  0.291  0.723  0.012
     occupation matrix ns (before diag.):
       0.309  0.140  0.163 -0.205  0.050
       0.140  0.316  0.204 -0.230 -0.029
       0.163  0.204  0.332 -0.276 -0.017
      -0.205 -0.230 -0.276  0.442 -0.018
       0.050 -0.029 -0.017 -0.018  0.184

     Number of occupied Hubbard levels =    6.5499

     HUBBARD ENERGY =    0.1656  (Ry)

     total cpu time spent up to now is     3169.1 secs

     total energy              =   -1398.57156413 Ry
     estimated scf accuracy    <       0.37037378 Ry

     total magnetization       =     8.79 Bohr mag/cell
     absolute magnetization    =     9.42 Bohr mag/cell
[tb_dev] Currently allocated     0.00E+00 Mbytes, locked:    0 /   0
[tb_pin] Currently allocated     0.00E+00 Mbytes, locked:    0 /   0

     iteration # 13     ecut=    50.00 Ry     beta= 0.70
     CG style diagonalization

---- Real-time Memory Report at c_bands before calling an iterative solver
         10846 MiB given to the printing process from OS
             0 MiB allocation reported by mallinfo(arena+hblkhd)
        456687 MiB available memory on the node where the printing process lives
     GPU memory used/free/total (MiB): 3676 / 61268 / 64944
------------------
     c_bands:  1 eigenvalues not converged
     c_bands:  3 eigenvalues not converged
     c_bands:  1 eigenvalues not converged
     c_bands:  1 eigenvalues not converged
     c_bands:  1 eigenvalues not converged
     c_bands:  2 eigenvalues not converged
     c_bands:  1 eigenvalues not converged
     c_bands:  2 eigenvalues not converged
     c_bands:  1 eigenvalues not converged
     c_bands:  5 eigenvalues not converged
     c_bands:  3 eigenvalues not converged
     c_bands:  1 eigenvalues not converged
     c_bands:  1 eigenvalues not converged
     c_bands:  2 eigenvalues not converged
     c_bands:  1 eigenvalues not converged
     c_bands:  2 eigenvalues not converged
     c_bands:  3 eigenvalues not converged
     c_bands:  2 eigenvalues not converged
     c_bands:  3 eigenvalues not converged
     c_bands:  3 eigenvalues not converged
     c_bands:  4 eigenvalues not converged
     c_bands:  1 eigenvalues not converged
     c_bands:  1 eigenvalues not converged
     c_bands:  1 eigenvalues not converged
     c_bands:  4 eigenvalues not converged
     c_bands:  2 eigenvalues not converged
     c_bands:  1 eigenvalues not converged
     c_bands:  3 eigenvalues not converged
     c_bands:  2 eigenvalues not converged
     c_bands:  3 eigenvalues not converged
     c_bands:  1 eigenvalues not converged
     c_bands:  1 eigenvalues not converged
     c_bands:  1 eigenvalues not converged
     c_bands:  1 eigenvalues not converged
     c_bands:  2 eigenvalues not converged
     c_bands:  1 eigenvalues not converged
     c_bands:  4 eigenvalues not converged
     c_bands:  1 eigenvalues not converged
     c_bands:  3 eigenvalues not converged
     c_bands:  2 eigenvalues not converged
     c_bands:  1 eigenvalues not converged
     c_bands:  1 eigenvalues not converged
     c_bands:  3 eigenvalues not converged
     c_bands:  3 eigenvalues not converged
     c_bands:  3 eigenvalues not converged
     c_bands:  2 eigenvalues not converged
     c_bands:  2 eigenvalues not converged
     c_bands:  1 eigenvalues not converged
     c_bands:  1 eigenvalues not converged
     c_bands:  3 eigenvalues not converged
     c_bands:  2 eigenvalues not converged
     c_bands:  2 eigenvalues not converged
     c_bands:  3 eigenvalues not converged
     c_bands:  4 eigenvalues not converged
     c_bands:  2 eigenvalues not converged
     c_bands:  1 eigenvalues not converged
     c_bands:  4 eigenvalues not converged
     c_bands:  2 eigenvalues not converged
     c_bands:  2 eigenvalues not converged
     c_bands:  1 eigenvalues not converged
     c_bands:  2 eigenvalues not converged
     c_bands:  1 eigenvalues not converged
     c_bands:  1 eigenvalues not converged
     c_bands:  3 eigenvalues not converged
     c_bands:  1 eigenvalues not converged
     c_bands:  1 eigenvalues not converged
     c_bands:  1 eigenvalues not converged
     c_bands:  1 eigenvalues not converged
     c_bands:  1 eigenvalues not converged
     c_bands:  1 eigenvalues not converged
     c_bands:  1 eigenvalues not converged
     c_bands:  2 eigenvalues not converged
     c_bands:  1 eigenvalues not converged
     c_bands:  1 eigenvalues not converged
     c_bands:  2 eigenvalues not converged
     c_bands:  1 eigenvalues not converged
     c_bands:  4 eigenvalues not converged
     c_bands:  2 eigenvalues not converged
     c_bands:  1 eigenvalues not converged
     c_bands:  4 eigenvalues not converged
     c_bands:  1 eigenvalues not converged
     c_bands:  1 eigenvalues not converged
     c_bands:  1 eigenvalues not converged
     c_bands:  2 eigenvalues not converged
     c_bands:  2 eigenvalues not converged
     c_bands:  2 eigenvalues not converged
     c_bands:  2 eigenvalues not converged
     c_bands:  2 eigenvalues not converged
     c_bands:  1 eigenvalues not converged
     c_bands:  1 eigenvalues not converged
     c_bands:  2 eigenvalues not converged
     c_bands:  4 eigenvalues not converged
     c_bands:  4 eigenvalues not converged
     c_bands:  3 eigenvalues not converged
     c_bands:  3 eigenvalues not converged
     c_bands:  3 eigenvalues not converged
     c_bands:  2 eigenvalues not converged
     c_bands:  1 eigenvalues not converged
     c_bands:  3 eigenvalues not converged
     c_bands:  1 eigenvalues not converged
     c_bands:  1 eigenvalues not converged
     c_bands:  2 eigenvalues not converged
     c_bands:  1 eigenvalues not converged
     c_bands:  1 eigenvalues not converged
     c_bands:  1 eigenvalues not converged
     c_bands:  2 eigenvalues not converged
     c_bands:  1 eigenvalues not converged
     c_bands:  1 eigenvalues not converged
     c_bands:  2 eigenvalues not converged
     c_bands:  3 eigenvalues not converged
     c_bands:  1 eigenvalues not converged
     c_bands:  3 eigenvalues not converged
     c_bands:  1 eigenvalues not converged
     c_bands:  3 eigenvalues not converged
     c_bands:  1 eigenvalues not converged
     c_bands:  2 eigenvalues not converged
     c_bands:  2 eigenvalues not converged
     c_bands:  1 eigenvalues not converged
     c_bands:  2 eigenvalues not converged
     c_bands:  4 eigenvalues not converged
     c_bands:  2 eigenvalues not converged
     c_bands:  3 eigenvalues not converged
     c_bands:  2 eigenvalues not converged
     c_bands:  1 eigenvalues not converged
     c_bands:  3 eigenvalues not converged
     c_bands:  3 eigenvalues not converged
     c_bands:  3 eigenvalues not converged
     c_bands:  2 eigenvalues not converged
     c_bands:  2 eigenvalues not converged
     c_bands:  4 eigenvalues not converged
     c_bands:  1 eigenvalues not converged
     c_bands:  1 eigenvalues not converged
     c_bands:  2 eigenvalues not converged
     c_bands:  2 eigenvalues not converged
     c_bands:  1 eigenvalues not converged
     c_bands:  1 eigenvalues not converged
     c_bands:  2 eigenvalues not converged
     c_bands:  1 eigenvalues not converged
     c_bands:  3 eigenvalues not converged
     c_bands:  4 eigenvalues not converged
     c_bands:  2 eigenvalues not converged
     c_bands:  1 eigenvalues not converged
     c_bands:  2 eigenvalues not converged
     c_bands:  1 eigenvalues not converged
     c_bands:  1 eigenvalues not converged
     c_bands:  1 eigenvalues not converged
     c_bands:  1 eigenvalues not converged
     c_bands:  3 eigenvalues not converged
     c_bands:  1 eigenvalues not converged
     c_bands:  2 eigenvalues not converged
     c_bands:  2 eigenvalues not converged
     c_bands:  1 eigenvalues not converged
     c_bands:  2 eigenvalues not converged
     c_bands:  1 eigenvalues not converged
     c_bands:  4 eigenvalues not converged
     c_bands:  1 eigenvalues not converged
     c_bands:  1 eigenvalues not converged
     c_bands:  1 eigenvalues not converged
     c_bands:  2 eigenvalues not converged
     c_bands:  2 eigenvalues not converged
     c_bands:  1 eigenvalues not converged
     c_bands:  1 eigenvalues not converged
     c_bands:  1 eigenvalues not converged
     c_bands:  1 eigenvalues not converged
     c_bands:  3 eigenvalues not converged
     c_bands:  4 eigenvalues not converged
     c_bands:  3 eigenvalues not converged
     c_bands:  1 eigenvalues not converged
     c_bands:  2 eigenvalues not converged
     c_bands:  3 eigenvalues not converged
     c_bands:  2 eigenvalues not converged
     c_bands:  2 eigenvalues not converged
     ethr =  1.84E-04,  avg # of iterations =  3.6

     =================== HUBBARD OCCUPATIONS ===================
     ------------------------ ATOM    1 ------------------------
     Tr[ns(  1)] (up, down, total) =   4.95549  1.58198  6.53747
     Atomic magnetic moment for atom   1 =   3.37351
     SPIN  1
     eigenvalues:
       0.962  0.996  0.999  0.999  0.999
     eigenvectors (columns):
       0.092  0.176 -0.835 -0.447 -0.252
      -0.694 -0.115 -0.018 -0.460  0.542
       0.387 -0.846 -0.216 -0.017  0.295
       0.118 -0.219  0.482 -0.696 -0.470
      -0.588 -0.438 -0.154  0.322 -0.579
     occupation matrix ns (before diag.):
       0.999  0.002 -0.001 -0.000  0.002
       0.002  0.981  0.010  0.003 -0.016
      -0.001  0.010  0.992 -0.002  0.007
      -0.000  0.003 -0.002  0.999  0.002
       0.002 -0.016  0.007  0.002  0.986
     SPIN  2
     eigenvalues:
       0.097  0.121  0.145  0.252  0.968
     eigenvectors (columns):
      -0.157 -0.329  0.607 -0.577  0.407
      -0.025  0.708  0.402  0.351  0.461
       0.764 -0.326 -0.130  0.198  0.505
       0.517  0.055  0.602  0.034 -0.605
       0.353  0.530 -0.302 -0.710  0.009
     occupation matrix ns (before diag.):
       0.313  0.138  0.160 -0.201  0.054
       0.138  0.321  0.205 -0.229 -0.032
       0.160  0.205  0.328 -0.269 -0.020
      -0.201 -0.229 -0.269  0.434 -0.017
       0.054 -0.032 -0.020 -0.017  0.186

     Number of occupied Hubbard levels =    6.5375

     HUBBARD ENERGY =    0.1628  (Ry)

     total cpu time spent up to now is     3429.9 secs

     total energy              =   -1398.57564008 Ry
     estimated scf accuracy    <       0.39669877 Ry

     total magnetization       =     8.35 Bohr mag/cell
[...]
      -0.023  0.045  0.141  0.217 -0.243
       0.072  0.006 -0.148 -0.243  0.510

     Number of occupied Hubbard levels =    6.9647

     HUBBARD ENERGY =    0.0868  (Ry)

     total cpu time spent up to now is    73910.6 secs

     total energy              =   -1398.61451781 Ry
     estimated scf accuracy    <       0.00000075 Ry

     total magnetization       =     9.51 Bohr mag/cell
     absolute magnetization    =     9.91 Bohr mag/cell
[tb_dev] Currently allocated     0.00E+00 Mbytes, locked:    0 /   0
[tb_pin] Currently allocated     0.00E+00 Mbytes, locked:    0 /   0

     iteration #152     ecut=    50.00 Ry     beta= 0.70
     CG style diagonalization

---- Real-time Memory Report at c_bands before calling an iterative solver
         10846 MiB given to the printing process from OS
             0 MiB allocation reported by mallinfo(arena+hblkhd)
        406578 MiB available memory on the node where the printing process lives
     GPU memory used/free/total (MiB): 4530 / 60414 / 64944
------------------
     ethr =  2.20E-10,  avg # of iterations =  3.5

     =================== HUBBARD OCCUPATIONS ===================
     ------------------------ ATOM    1 ------------------------
     Tr[ns(  1)] (up, down, total) =   4.99276  1.97139  6.96416
     Atomic magnetic moment for atom   1 =   3.02137
     SPIN  1
     eigenvalues:
       0.996  0.999  0.999  0.999  1.000
     eigenvectors (columns):
       0.148 -0.648 -0.708 -0.068 -0.231
       0.055  0.468 -0.187 -0.702 -0.500
      -0.878 -0.320  0.136 -0.328  0.013
      -0.272  0.443 -0.648  0.052  0.555
      -0.360  0.251 -0.162  0.626 -0.624
     occupation matrix ns (before diag.):
       0.999  0.000  0.000  0.000  0.000
       0.000  0.999  0.000 -0.000  0.000
       0.000  0.000  0.997 -0.001 -0.001
       0.000 -0.000 -0.001  0.999 -0.001
       0.000  0.000 -0.001 -0.001  0.999
     SPIN  2
     eigenvalues:
       0.043  0.098  0.120  0.723  0.988
     eigenvectors (columns):
      -0.352  0.298  0.467  0.250 -0.712
       0.230 -0.765 -0.221  0.071 -0.555
       0.467  0.554 -0.486 -0.267 -0.411
      -0.755 -0.061 -0.447 -0.464 -0.109
      -0.191  0.123 -0.545  0.804  0.070
     occupation matrix ns (before diag.):
       0.586  0.365  0.223 -0.022  0.072
       0.365  0.373  0.187  0.045  0.006
       0.223  0.187  0.286  0.141 -0.149
      -0.022  0.045  0.141  0.216 -0.242
       0.072  0.006 -0.149 -0.242  0.511

     Number of occupied Hubbard levels =    6.9642

     HUBBARD ENERGY =    0.0868  (Ry)

     total cpu time spent up to now is    74162.3 secs

     total energy              =   -1398.61451866 Ry
     estimated scf accuracy    <       0.00000078 Ry

     total magnetization       =     9.51 Bohr mag/cell
     absolute magnetization    =     9.91 Bohr mag/cell
[tb_dev] Currently allocated     0.00E+00 Mbytes, locked:    0 /   0
[tb_pin] Currently allocated     0.00E+00 Mbytes, locked:    0 /   0

     iteration #153     ecut=    50.00 Ry     beta= 0.70
     CG style diagonalization

---- Real-time Memory Report at c_bands before calling an iterative solver
         10846 MiB given to the printing process from OS
             0 MiB allocation reported by mallinfo(arena+hblkhd)
        406540 MiB available memory on the node where the printing process lives
     GPU memory used/free/total (MiB): 4530 / 60414 / 64944
------------------
     ethr =  2.20E-10,  avg # of iterations =  3.6

     =================== HUBBARD OCCUPATIONS ===================
     ------------------------ ATOM    1 ------------------------
     Tr[ns(  1)] (up, down, total) =   4.99279  1.97167  6.96446
     Atomic magnetic moment for atom   1 =   3.02112
     SPIN  1
     eigenvalues:
       0.996  0.999  0.999  0.999  1.000
     eigenvectors (columns):
       0.148 -0.652  0.705 -0.067 -0.227
       0.054  0.464  0.189 -0.701 -0.504
      -0.878 -0.319 -0.137 -0.328  0.017
      -0.272  0.445  0.650  0.053  0.550
      -0.360  0.245  0.160  0.627 -0.626
     occupation matrix ns (before diag.):
       0.999  0.000  0.000  0.000  0.000
       0.000  0.999  0.000 -0.000  0.000
       0.000  0.000  0.997 -0.001 -0.001
       0.000 -0.000 -0.001  0.999 -0.001
       0.000  0.000 -0.001 -0.001  0.999
     SPIN  2
     eigenvalues:
       0.043  0.098  0.119  0.723  0.988
     eigenvectors (columns):
      -0.353  0.294  0.466 -0.247  0.715
       0.232 -0.766 -0.223 -0.067  0.552
       0.466  0.555 -0.484  0.267  0.410
      -0.753 -0.062 -0.448  0.467  0.106
      -0.193  0.122 -0.546 -0.803 -0.067
     occupation matrix ns (before diag.):
       0.588  0.364  0.224 -0.024  0.072
       0.364  0.371  0.187  0.045  0.006
       0.224  0.187  0.286  0.141 -0.148
      -0.024  0.045  0.141  0.217 -0.244
       0.072  0.006 -0.148 -0.244  0.510

     Number of occupied Hubbard levels =    6.9645

     HUBBARD ENERGY =    0.0868  (Ry)

     total cpu time spent up to now is    74416.7 secs

     total energy              =   -1398.61452541 Ry
     estimated scf accuracy    <       0.00000071 Ry

     total magnetization       =     9.51 Bohr mag/cell
     absolute magnetization    =     9.91 Bohr mag/cell
[tb_dev] Currently allocated     0.00E+00 Mbytes, locked:    0 /   0
[tb_pin] Currently allocated     0.00E+00 Mbytes, locked:    0 /   0

     iteration #154     ecut=    50.00 Ry     beta= 0.70
     CG style diagonalization

---- Real-time Memory Report at c_bands before calling an iterative solver
         10846 MiB given to the printing process from OS
             0 MiB allocation reported by mallinfo(arena+hblkhd)
        406500 MiB available memory on the node where the printing process lives
     GPU memory used/free/total (MiB): 4530 / 60414 / 64944
------------------
     ethr =  2.20E-10,  avg # of iterations =  3.0

     =================== HUBBARD OCCUPATIONS ===================
     ------------------------ ATOM    1 ------------------------
     Tr[ns(  1)] (up, down, total) =   4.99279  1.97202  6.96481
     Atomic magnetic moment for atom   1 =   3.02076
     SPIN  1
     eigenvalues:
       0.996  0.999  0.999  0.999  1.000
     eigenvectors (columns):
       0.148 -0.651  0.705 -0.067 -0.227
       0.055  0.464  0.189 -0.702 -0.503
      -0.878 -0.319 -0.137 -0.328  0.016
      -0.272  0.444  0.650  0.053  0.551
      -0.360  0.246  0.160  0.627 -0.626
     occupation matrix ns (before diag.):
       0.999  0.000  0.000  0.000  0.000
       0.000  0.999  0.000 -0.000  0.000
       0.000  0.000  0.997 -0.001 -0.001
       0.000 -0.000 -0.001  0.999 -0.001
       0.000  0.000 -0.001 -0.001  0.999
     SPIN  2
     eigenvalues:
       0.043  0.098  0.119  0.723  0.988
     eigenvectors (columns):
      -0.353  0.294  0.466 -0.247  0.715
       0.232 -0.766 -0.224 -0.067  0.552
       0.466  0.555 -0.484  0.267  0.411
      -0.753 -0.062 -0.448  0.467  0.106
      -0.193  0.122 -0.546 -0.803 -0.067
     occupation matrix ns (before diag.):
       0.588  0.364  0.224 -0.024  0.072
       0.364  0.371  0.187  0.045  0.006
       0.224  0.187  0.286  0.141 -0.148
      -0.024  0.045  0.141  0.217 -0.244
       0.072  0.006 -0.148 -0.244  0.510

     Number of occupied Hubbard levels =    6.9648

     HUBBARD ENERGY =    0.0868  (Ry)

     total cpu time spent up to now is    74621.3 secs

     total energy              =   -1398.61452583 Ry
     estimated scf accuracy    <       0.00000085 Ry

     total magnetization       =     9.51 Bohr mag/cell
     absolute magnetization    =     9.91 Bohr mag/cell
[tb_dev] Currently allocated     0.00E+00 Mbytes, locked:    0 /   0
[tb_pin] Currently allocated     0.00E+00 Mbytes, locked:    0 /   0

     iteration #155     ecut=    50.00 Ry     beta= 0.70
     CG style diagonalization

---- Real-time Memory Report at c_bands before calling an iterative solver
         10846 MiB given to the printing process from OS
             0 MiB allocation reported by mallinfo(arena+hblkhd)
        406465 MiB available memory on the node where the printing process lives
     GPU memory used/free/total (MiB): 4530 / 60414 / 64944
------------------
     ethr =  2.20E-10,  avg # of iterations =  3.0

     =================== HUBBARD OCCUPATIONS ===================
     ------------------------ ATOM    1 ------------------------
     Tr[ns(  1)] (up, down, total) =   4.99279  1.97218  6.96498
     Atomic magnetic moment for atom   1 =   3.02061
     SPIN  1
     eigenvalues:
       0.996  0.999  0.999  0.999  1.000
     eigenvectors (columns):
       0.148 -0.653  0.705 -0.067 -0.226
       0.054  0.463  0.189 -0.702 -0.505
      -0.878 -0.319 -0.137 -0.328  0.017
      -0.272  0.445  0.650  0.053  0.549
      -0.360  0.244  0.160  0.627 -0.626
     occupation matrix ns (before diag.):
       0.999  0.000  0.000  0.000  0.000
       0.000  0.999  0.000 -0.000  0.000
       0.000  0.000  0.997 -0.001 -0.001
       0.000 -0.000 -0.001  0.999 -0.001
       0.000  0.000 -0.001 -0.001  0.999
     SPIN  2
     eigenvalues:
       0.043  0.098  0.119  0.724  0.988
     eigenvectors (columns):
      -0.354  0.293  0.466 -0.246  0.715
       0.232 -0.766 -0.224 -0.066  0.552
       0.466  0.556 -0.484  0.267  0.411
      -0.753 -0.061 -0.448  0.467  0.105
      -0.193  0.122 -0.546 -0.803 -0.066
     occupation matrix ns (before diag.):
       0.588  0.364  0.224 -0.024  0.072
       0.364  0.370  0.187  0.044  0.005
       0.224  0.187  0.286  0.141 -0.148
      -0.024  0.044  0.141  0.217 -0.244
       0.072  0.005 -0.148 -0.244  0.510

     Number of occupied Hubbard levels =    6.9650

     HUBBARD ENERGY =    0.0866  (Ry)

     total cpu time spent up to now is    74827.1 secs

     total energy              =   -1398.61447930 Ry
     estimated scf accuracy    <       0.00000111 Ry

     total magnetization       =     9.51 Bohr mag/cell
     absolute magnetization    =     9.91 Bohr mag/cell
[tb_dev] Currently allocated     0.00E+00 Mbytes, locked:    0 /   0
[tb_pin] Currently allocated     0.00E+00 Mbytes, locked:    0 /   0

     iteration #156     ecut=    50.00 Ry     beta= 0.70
     CG style diagonalization

---- Real-time Memory Report at c_bands before calling an iterative solver
         10846 MiB given to the printing process from OS
             0 MiB allocation reported by mallinfo(arena+hblkhd)
        406426 MiB available memory on the node where the printing process lives
     GPU memory used/free/total (MiB): 4530 / 60414 / 64944
------------------
     ethr =  2.20E-10,  avg # of iterations =  4.7

     =================== HUBBARD OCCUPATIONS ===================
     ------------------------ ATOM    1 ------------------------
     Tr[ns(  1)] (up, down, total) =   4.99285  1.97358  6.96643
     Atomic magnetic moment for atom   1 =   3.01926
     SPIN  1
     eigenvalues:
       0.996  0.999  0.999  0.999  1.000
     eigenvectors (columns):
       0.147  0.663  0.698  0.065 -0.217
       0.053 -0.452  0.193  0.701 -0.514
      -0.878  0.317 -0.139  0.328  0.025
      -0.272 -0.449  0.656 -0.055  0.539
      -0.361 -0.231  0.158 -0.627 -0.631
     occupation matrix ns (before diag.):
       0.999  0.000  0.000  0.000  0.000
       0.000  0.999  0.000 -0.000  0.000
       0.000  0.000  0.997 -0.001 -0.001
       0.000 -0.000 -0.001  0.999 -0.001
       0.000  0.000 -0.001 -0.001  0.999
     SPIN  2
     eigenvalues:
       0.043  0.099  0.119  0.725  0.988
     eigenvectors (columns):
      -0.359  0.280  0.465 -0.238  0.721
       0.236 -0.769 -0.229 -0.054  0.546
       0.464  0.560 -0.481  0.266  0.411
      -0.749 -0.062 -0.448  0.475  0.096
      -0.199  0.118 -0.547 -0.802 -0.057
     occupation matrix ns (before diag.):
       0.594  0.361  0.229 -0.028  0.074
       0.361  0.364  0.187  0.043  0.005
       0.229  0.187  0.286  0.138 -0.144
      -0.028  0.043  0.138  0.221 -0.247
       0.074  0.005 -0.144 -0.247  0.509

     Number of occupied Hubbard levels =    6.9664

     HUBBARD ENERGY =    0.0865  (Ry)

     total cpu time spent up to now is    75193.5 secs

     total energy              =   -1398.61452939 Ry
     estimated scf accuracy    <       0.00000455 Ry

     total magnetization       =     9.51 Bohr mag/cell
     absolute magnetization    =     9.91 Bohr mag/cell
[tb_dev] Currently allocated     0.00E+00 Mbytes, locked:    0 /   0
[tb_pin] Currently allocated     0.00E+00 Mbytes, locked:    0 /   0

     iteration #157     ecut=    50.00 Ry     beta= 0.70
     CG style diagonalization

---- Real-time Memory Report at c_bands before calling an iterative solver
         10846 MiB given to the printing process from OS
             0 MiB allocation reported by mallinfo(arena+hblkhd)
        406373 MiB available memory on the node where the printing process lives
     GPU memory used/free/total (MiB): 4530 / 60414 / 64944
------------------
     ethr =  2.20E-10,  avg # of iterations =  3.7

     =================== HUBBARD OCCUPATIONS ===================
     ------------------------ ATOM    1 ------------------------
     Tr[ns(  1)] (up, down, total) =   4.99288  1.97357  6.96645
     Atomic magnetic moment for atom   1 =   3.01931
     SPIN  1
     eigenvalues:
       0.996  0.999  0.999  0.999  1.000
     eigenvectors (columns):
      -0.147  0.668  0.695  0.065  0.212
      -0.053 -0.448  0.196  0.700  0.518
       0.879  0.315 -0.140  0.329 -0.029
       0.271 -0.452  0.659 -0.059 -0.533
       0.361 -0.222  0.156 -0.627  0.635
     occupation matrix ns (before diag.):
       0.999  0.000  0.000  0.000  0.000
       0.000  0.999  0.000 -0.000  0.000
       0.000  0.000  0.997 -0.001 -0.001
       0.000 -0.000 -0.001  0.999 -0.001
       0.000  0.000 -0.001 -0.001  0.999
     SPIN  2
     eigenvalues:
       0.043  0.099  0.119  0.725  0.988
     eigenvectors (columns):
      -0.361  0.276  0.464 -0.235  0.723
       0.238 -0.769 -0.231 -0.050  0.544
       0.463  0.561 -0.480  0.266  0.411
      -0.747 -0.062 -0.448  0.478  0.093
      -0.201  0.116 -0.548 -0.802 -0.053
     occupation matrix ns (before diag.):
       0.596  0.360  0.230 -0.030  0.074
       0.360  0.361  0.187  0.042  0.004
       0.230  0.187  0.286  0.138 -0.143
      -0.030  0.042  0.138  0.222 -0.248
       0.074  0.004 -0.143 -0.248  0.508

     Number of occupied Hubbard levels =    6.9664

     HUBBARD ENERGY =    0.0867  (Ry)

     total cpu time spent up to now is    75461.9 secs

     total energy              =   -1398.61450965 Ry
     estimated scf accuracy    <       0.00000462 Ry

     total magnetization       =     9.51 Bohr mag/cell
     absolute magnetization    =     9.92 Bohr mag/cell
[tb_dev] Currently allocated     0.00E+00 Mbytes, locked:    0 /   0
[tb_pin] Currently allocated     0.00E+00 Mbytes, locked:    0 /   0

     iteration #158     ecut=    50.00 Ry     beta= 0.70
     CG style diagonalization

---- Real-time Memory Report at c_bands before calling an iterative solver
         10846 MiB given to the printing process from OS
             0 MiB allocation reported by mallinfo(arena+hblkhd)
        406348 MiB available memory on the node where the printing process lives
     GPU memory used/free/total (MiB): 4530 / 60414 / 64944
------------------

     Maximum CPU time exceeded

     max_seconds     =   75600.00
     elapsed seconds =   75600.51
     Calculation stopped in k-point loop, point #   116
     Calculation stopped in scf loop at iteration #   157

     Writing config to output data dir ./out/aiida.save/ :
     XML data file, charge density
 
     init_run     :     12.72s CPU     15.95s WALL (       1 calls)
     electrons    :  74680.22s CPU  75432.98s WALL (       2 calls)
     update_pot   :      0.38s CPU      0.39s WALL (       1 calls)
     forces       :     38.46s CPU     38.90s WALL (       1 calls)
     stress       :    106.03s CPU    106.91s WALL (       1 calls)

     Called by init_run:
     wfcinit      :     10.34s CPU     13.28s WALL (       1 calls)
     wfcinit:atom :      0.50s CPU      0.50s WALL (     246 calls)
     wfcinit:wfcr :      5.50s CPU      5.53s WALL (     246 calls)
     potinit      :      0.45s CPU      0.52s WALL (       1 calls)
     hinit0       :      1.32s CPU      1.39s WALL (       1 calls)

     Called by electrons:
     c_bands      :  72317.27s CPU  73067.73s WALL (     314 calls)
     sum_band     :   2222.45s CPU   2230.77s WALL (     313 calls)
     v_of_rho     :      7.69s CPU      7.88s WALL (     315 calls)
     v_h          :      2.60s CPU      2.63s WALL (     315 calls)
     v_xc         :      5.11s CPU      5.27s WALL (     317 calls)
     newd         :     10.04s CPU     10.20s WALL (     315 calls)
     PAW_pot      :     74.13s CPU     74.72s WALL (     316 calls)
     mix_rho      :     21.56s CPU     21.92s WALL (     313 calls)

     Called by c_bands:
     init_us_2    :    144.78s CPU    145.69s WALL (  156080 calls)
     ccgdiagg     :  69485.73s CPU  70189.37s WALL (   77360 calls)
     wfcrot       :   1532.16s CPU   1540.88s WALL (   77114 calls)
                                     1540.72s GPU  (   77114 calls)

     Called by sum_band:
     sum_band:wei :      7.06s CPU      7.09s WALL (     313 calls)
     sum_band:loo :   1348.38s CPU   1352.85s WALL (     313 calls)
     sum_band:buf :    560.03s CPU    562.04s WALL (   76998 calls)
     sum_band:ini :     71.65s CPU     72.05s WALL (   76998 calls)
     sum_band:cal :      4.16s CPU      4.19s WALL (   77244 calls)
     sum_band:bec :    123.94s CPU    124.48s WALL (   77244 calls)
     addusdens    :     20.83s CPU     21.02s WALL (     313 calls)
                                       21.02s GPU  (     313 calls)
     addusd:skk   :      0.30s CPU      0.31s WALL (     939 calls)
                                        0.30s GPU  (     939 calls)

     Called by *cgdiagg:
     h_psi        :  25253.14s CPU  25686.40s WALL (22531339 calls)
     s_psi        :  34587.61s CPU  34809.61s WALL (44987040 calls)

     Called by h_psi:
     h_psi:calbec :    197.88s CPU    200.36s WALL (22531339 calls)
     vloc_psi     :   6883.91s CPU   7145.82s WALL (22531339 calls)
                                     7004.44s GPU  (22531339 calls)
     add_vuspsi   :  14471.07s CPU  14765.33s WALL (22531339 calls)
     vhpsi        :   3067.38s CPU   3119.53s WALL (22531339 calls)
     hs_1psi      :  40760.12s CPU  43322.01s WALL (22454225 calls)
                                    43182.49s GPU  (22454225 calls)
     s_1psi       :  18340.30s CPU  20496.02s WALL (22454225 calls)
                                    20356.57s GPU  (22454225 calls)

     General routines
     calbec       :    900.11s CPU    913.63s WALL (68458837 calls)
     fft          :     14.62s CPU     15.24s WALL (    7912 calls)
                                        0.60s GPU  (    7282 calls)
     ffts         :      3.89s CPU      3.93s WALL (    1256 calls)
                                        0.03s GPU  (     626 calls)
     fftw         :    361.95s CPU   3201.56s WALL (46758750 calls)
                                     2916.58s GPU  (46758750 calls)
     interpolate  :     20.63s CPU     20.72s WALL (     630 calls)
     davcio       :      0.04s CPU      6.60s WALL (     264 calls)
 
     Parallel routines

     Hubbard U routines
     new_ns       :    831.53s CPU    834.98s WALL (     313 calls)
     vhpsi        :   3067.38s CPU   3119.53s WALL (22531339 calls)
     force_hub    :     35.03s CPU     35.44s WALL (       1 calls)
     stres_hub    :    100.77s CPU    101.59s WALL (       1 calls)

     PAW routines
     PAW_pot      :     74.13s CPU     74.72s WALL (     316 calls)
     PAW_symme    :      0.07s CPU      0.08s WALL (     629 calls)
 
     PWSCF        :     20h47m CPU     21h 0m WALL

 
   This run was terminated on:   7:54:16  17Oct2025            

=------------------------------------------------------------------------------=
   JOB DONE.
=------------------------------------------------------------------------------=
