
     Program PWSCF v.7.4.1 starts on 15Oct2025 at  9:37: 6 

     This program is part of the open-source Quantum ESPRESSO suite
     for quantum simulation of materials; please cite
         "P. Giannozzi et al., J. Phys.:Condens. Matter 21 395502 (2009);
         "P. Giannozzi et al., J. Phys.:Condens. Matter 29 465901 (2017);
         "P. Giannozzi et al., J. Chem. Phys. 152 154105 (2020);
          URL http://www.quantum-espresso.org", 
     in publications or presentations arising from this work. More details at
     http://www.quantum-espresso.org/quote

     Parallel version (MPI & OpenMP), running on       1 processor cores
     Number of MPI processes:                 1
     Threads/MPI process:                     1

     MPI processes distributed on     1 nodes
     459380 MiB available memory on the printing compute node when the environment starts
 
     Reading input from pwscf.in
Warning: card &FCP ignored
Warning: card &RISM ignored

     Current dimensions of program PWSCF are:
     Max number of different atomic species (ntypx) = 10
     Max number of k-points (npk) =  40000
     Max angular momentum in pseudopotentials (lmaxx) =  4
     file O.pbesol-n-kjpaw_psl.0.1.UPF: wavefunction(s)  2P renormalized
 check tnoseh fnoseh  F    1.000000000000000     
     Message from routine setup:
     using ibrav=0 with symmetry is DISCOURAGED, use correct ibrav instead
 
     Subspace diagonalization in iterative solution of the eigenvalue problem:
     a serial algorithm will be used

 
     G-vector sticks info
     --------------------
     sticks:   dense  smooth     PW     G-vecs:    dense   smooth      PW
     Sum        6957    3487    965               587521   207723   29971
 
     Using Slab Decomposition
 


     bravais-lattice index     =            0
     lattice parameter (alat)  =      12.0331  a.u.
     unit-cell volume          =    4349.4330 (a.u.)^3
     number of atoms/cell      =           46
     number of atomic types    =            3
     number of electrons       =       316.00
     number of Kohn-Sham states=          190
     kinetic-energy cutoff     =      50.0000  Ry
     charge density cutoff     =     400.0000  Ry
     scf convergence threshold =      1.0E-08
     mixing beta               =       0.7000
     number of iterations used =            8  plain     mixing
     energy convergence thresh.=      5.2E-04
     force convergence thresh. =      1.0E-04
     press convergence thresh. =      5.0E-01
     Exchange-correlation= PBESOL
                           (   1   4  10   8   0   0   0)
     nstep                     =          180


     GPU acceleration is ACTIVE.  1 visible GPUs per MPI rank
     GPU-aware MPI enabled


     GPU used by master process:

        Device Number: 0
        Device name: NVIDIA A100-SXM-64GB
        Compute capability : 80
        Ratio of single to double precision performance  : 2
        Memory Clock Rate (KHz): 1593000
        Memory Bus Width (bits): 4096
        Peak Memory Bandwidth (GB/s): ******
     Hubbard projectors: ortho-atomic
     Hubbard parameters of DFT+U (Dudarev formulation) in eV:
     U(Cr-3d) =  3.0000

     Internal variables: lda_plus_u = T, lda_plus_u_kind = 0

     celldm(1)=  12.033062  celldm(2)=   0.000000  celldm(3)=   0.000000
     celldm(4)=   0.000000  celldm(5)=   0.000000  celldm(6)=   0.000000

     crystal axes: (cart. coord. in units of alat)
               a(1) = (   1.000000   0.000000   0.000000 )  
               a(2) = (  -0.500000   1.511184   0.000000 )  
               a(3) = (   0.000000  -0.053926   1.651912 )  

     reciprocal axes: (cart. coord. in units 2 pi/alat)
               b(1) = (  1.000000  0.330866  0.010801 )  
               b(2) = ( -0.000000  0.661733  0.021602 )  
               b(3) = (  0.000000 -0.000000  0.605359 )  


     PseudoPot. # 1 for Cr read from file:
     /leonardo_scratch/large/userexternal/nalghamd/mc_mace/GNoME-screening/2_space_group_DFT/pseudo_SSSP1.3_aiida/cr_pbesol_v1.5.uspp.F.UPF
     MD5 check sum: a621641e0be27168676a837af8893d0f
     Pseudo is Ultrasoft + core correction, Zval = 14.0
     Generated by new atomic code, or converted to UPF format
     Using radial grid of  857 points,  6 beta functions with: 
                l(1) =   0
                l(2) =   0
                l(3) =   1
                l(4) =   1
                l(5) =   2
                l(6) =   2
     Q(r) pseudized with  8 coefficients,  rinner =    0.950   0.950   0.950
                                                       0.950   0.950

     PseudoPot. # 2 for O  read from file:
     /leonardo_scratch/large/userexternal/nalghamd/mc_mace/GNoME-screening/2_space_group_DFT/pseudo_SSSP1.3_aiida/O.pbesol-n-kjpaw_psl.0.1.UPF
     MD5 check sum: 81d73d1479e654e5638b0319f0d6c2c7
     Pseudo is Projector augmented-wave + core cor, Zval =  6.0
     Generated using "atomic" code by A. Dal Corso  v.6.0 svn rev. 13079
     Shape of augmentation charge: BESSEL
     Using radial grid of 1095 points,  4 beta functions with: 
                l(1) =   0
                l(2) =   0
                l(3) =   1
                l(4) =   1
     Q(r) pseudized with 0 coefficients 


     PseudoPot. # 3 for P  read from file:
     /leonardo_scratch/large/userexternal/nalghamd/mc_mace/GNoME-screening/2_space_group_DFT/pseudo_SSSP1.3_aiida/P.pbesol-n-rrkjus_psl.1.0.0.UPF
     MD5 check sum: bbb94b1b16383820d6a769669b5d42db
     Pseudo is Ultrasoft + core correction, Zval =  5.0
     Generated using "atomic" code by A. Dal Corso  v.6.0 svn rev. 13079
     Using radial grid of 1147 points,  6 beta functions with: 
                l(1) =   0
                l(2) =   0
                l(3) =   1
                l(4) =   1
                l(5) =   2
                l(6) =   2
     Q(r) pseudized with 0 coefficients 


     atomic species   valence    mass     pseudopotential
     Cr               14.00    51.99610     Cr( 1.00)
     O                 6.00    15.99940     O ( 1.00)
     P                 5.00    30.97376     P ( 1.00)

     Starting magnetic structure 
     atomic species   magnetization
     Cr              0.357
     O               0.100
     P               0.100

      4 Sym. Ops., with inversion, found ( 2 have fractional translation)


                                    s                        frac. trans.

      isym =  1     identity                                     

 cryst.   s( 1) = (     1          0          0      )
                  (     0          1          0      )
                  (     0          0          1      )

 cart.    s( 1) = (  1.0000000  0.0000000  0.0000000 )
                  (  0.0000000  1.0000000 -0.0000000 )
                  (  0.0000000  0.0000000  1.0000000 )


      isym =  2     180 deg rotation - cart. axis [1,0,0]        

 cryst.   s( 2) = (     1          0          0      )    f =(  0.0000000 )
                  (    -1         -1          0      )       (  0.0000000 )
                  (     0          0         -1      )       (  0.5000000 )

 cart.    s( 2) = (  1.0000000 -0.0000000 -0.0000000 )    f =(  0.0000000 )
                  (  0.0000000 -1.0000000  0.0000000 )       ( -0.0269629 )
                  (  0.0000000  0.0000000 -1.0000000 )       (  0.8259560 )


      isym =  3     inversion                                    

 cryst.   s( 3) = (    -1          0          0      )
                  (     0         -1          0      )
                  (     0          0         -1      )

 cart.    s( 3) = ( -1.0000000 -0.0000000 -0.0000000 )
                  (  0.0000000 -1.0000000  0.0000000 )
                  (  0.0000000  0.0000000 -1.0000000 )


      isym =  4     inv. 180 deg rotation - cart. axis [1,0,0]   

 cryst.   s( 4) = (    -1          0          0      )    f =(  0.0000000 )
                  (     1          1          0      )       (  0.0000000 )
                  (     0          0          1      )       ( -0.5000000 )

 cart.    s( 4) = ( -1.0000000  0.0000000  0.0000000 )    f =(  0.0000000 )
                  (  0.0000000  1.0000000 -0.0000000 )       (  0.0269629 )
                  (  0.0000000  0.0000000  1.0000000 )       ( -0.8259560 )


   Cartesian axes

     site n.     atom                  positions (alat units)
         1        Cr     tau(   1) = (   0.7500000   0.7555919   0.0000000  )
         2        Cr     tau(   2) = (   0.5257465   0.4599115   0.4116515  )
         3        Cr     tau(   3) = (   0.0257470   1.0243109   0.4143045  )
         4        Cr     tau(   4) = (   0.2500000   0.7286290   0.8259560  )
         5        Cr     tau(   5) = (   0.4742530   0.4329470   1.2376092  )
         6        Cr     tau(   6) = (  -0.0257470   0.9973481   1.2402589  )
         7        P      tau(   7) = (  -0.1643905   1.2557820   0.0148474  )
         8        P      tau(   8) = (   0.0229880   0.5917966   0.3991647  )
         9        P      tau(   9) = (   0.5229890   0.8924243   0.4267913  )
        10        P      tau(  10) = (   0.3356090   0.2284373   0.8111103  )
        11        P      tau(  11) = (   0.1643915   1.2288191   0.8408034  )
        12        P      tau(  12) = (  -0.0229880   0.5648337   1.2251208  )
        13        P      tau(  13) = (   0.4770120   0.8654614   1.2527474  )
        14        P      tau(  14) = (   0.6643905   0.2014759   1.6370647  )
        15        O      tau(  15) = (  -0.3073420   1.0567096   0.0103938  )
        16        O      tau(  16) = (  -0.2996745   1.4407323   0.0769874  )
        17        O      tau(  17) = (   0.0141140   1.2250213   0.1824438  )
        18        O      tau(  18) = (   0.5535575   0.2329277   0.2020685  )
        19        O      tau(  19) = (  -0.0170975   0.7628028   0.2210605  )
        20        O      tau(  20) = (   0.5564815   0.7280044   0.2411164  )
        21        O      tau(  21) = (   0.2143105   0.4572412   0.3467033  )
        22        O      tau(  22) = (   0.3369145   1.0319081   0.3721659  )
        23        O      tau(  23) = (   0.8369165   0.4523128   0.4537902  )
        24        O      tau(  24) = (  -0.2856900   1.0269782   0.4792511  )
        25        O      tau(  25) = (   0.0564815   0.7562165   0.5848413  )
        26        O      tau(  26) = (   0.4829030   0.7214166   0.6048955  )
        27        O      tau(  27) = (   0.0535565   1.2512932   0.6238876  )
        28        O      tau(  28) = (   0.5141150   0.2591995   0.6435139  )
        29        O      tau(  29) = (   0.2003255   0.0434885   0.7489703  )
        30        O      tau(  30) = (   0.1926575   0.4275098   0.8155622  )
        31        O      tau(  31) = (   0.3073430   1.0297467   0.8363499  )
        32        O      tau(  32) = (   0.2996745   1.4137694   0.9029434  )
        33        O      tau(  33) = (  -0.0141150   1.1980584   1.0083998  )
        34        O      tau(  34) = (   0.4464425   0.2059648   1.0280245  )
        35        O      tau(  35) = (   0.0170970   0.7358414   1.0470166  )
        36        O      tau(  36) = (   0.4435185   0.7010415   1.0670724  )
        37        O      tau(  37) = (   0.7856900   0.4302798   1.1726610  )
        38        O      tau(  38) = (  -0.3369145   1.0049452   1.1981219  )
        39        O      tau(  39) = (   0.1630845   0.4253499   1.2797462  )
        40        O      tau(  40) = (   0.2856890   1.0000153   1.3052071  )
        41        O      tau(  41) = (  -0.0564815   0.7292536   1.4107957  )
        42        O      tau(  42) = (   0.5170980   0.6944537   1.4308516  )
        43        O      tau(  43) = (  -0.0535575   1.2243303   1.4498436  )
        44        O      tau(  44) = (   0.4858860   0.2322367   1.4694683  )
        45        O      tau(  45) = (   0.7996745   0.0165257   1.5749247  )
        46        O      tau(  46) = (   0.8073420   0.4005484   1.6415199  )

   Crystallographic axes

     site n.     atom                  positions (cryst. coord.)
         1        Cr     tau(   1) = (  1.0000000  0.5000000  0.0000000  )
         2        Cr     tau(   2) = (  0.6823620  0.3132310  0.2491970  )
         3        Cr     tau(   3) = (  0.3691320  0.6867700  0.2508030  )
         4        Cr     tau(   4) = (  0.5000000  0.5000000  0.5000000  )
         5        Cr     tau(   5) = (  0.6308680  0.3132300  0.7491980  )
         6        Cr     tau(   6) = (  0.3176380  0.6867700  0.7508020  )
         7        P      tau(   7) = (  0.2512660  0.8313130  0.0089880  )
         8        P      tau(   8) = (  0.2231050  0.4002340  0.2416380  )
         9        P      tau(   9) = (  0.8228720  0.5997660  0.2583620  )
        10        P      tau(  10) = (  0.4199520  0.1686860  0.4910130  )
        11        P      tau(  11) = (  0.5800480  0.8313130  0.5089880  )
        12        P      tau(  12) = (  0.1771290  0.4002340  0.7416380  )
        13        P      tau(  13) = (  0.7768950  0.5997660  0.7583620  )
        14        P      tau(  14) = (  0.7487340  0.1686870  0.9910120  )
        15        O      tau(  15) = (  0.0424000  0.6994840  0.0062920  )
        16        O      tau(  16) = (  0.1778470  0.9550430  0.0466050  )
        17        O      tau(  17) = (  0.4214030  0.8145780  0.1104440  )
        18        O      tau(  18) = (  0.6328080  0.1585010  0.1223240  )
        19        O      tau(  19) = (  0.2376760  0.5095470  0.1338210  )
        20        O      tau(  20) = (  0.7999580  0.4869530  0.1459620  )
        21        O      tau(  21) = (  0.3693410  0.3100610  0.2098800  )
        22        O      tau(  22) = (  0.6823580  0.6908870  0.2252940  )
        23        O      tau(  23) = (  0.9914730  0.3091130  0.2747060  )
        24        O      tau(  24) = (  0.0592790  0.6899380  0.2901190  )
        25        O      tau(  25) = (  0.3130050  0.5130470  0.3540390  )
        26        O      tau(  26) = (  0.7281290  0.4904520  0.3661790  )
        27        O      tau(  27) = (  0.4743060  0.8414990  0.3776760  )
        28        O      tau(  28) = (  0.6068260  0.1854220  0.3895570  )
        29        O      tau(  29) = (  0.2228040  0.0449570  0.4533960  )
        30        O      tau(  30) = (  0.3429150  0.3005150  0.4937080  )
        31        O      tau(  31) = (  0.6570850  0.6994840  0.5062920  )
        32        O      tau(  32) = (  0.7771960  0.9550430  0.5466050  )
        33        O      tau(  33) = (  0.3931740  0.8145780  0.6104440  )
        34        O      tau(  34) = (  0.5256930  0.1585010  0.6223240  )
        35        O      tau(  35) = (  0.2718710  0.5095480  0.6338210  )
        36        O      tau(  36) = (  0.6869950  0.4869530  0.6459620  )
        37        O      tau(  37) = (  0.9407210  0.3100620  0.7098810  )
        38        O      tau(  38) = (  0.0085290  0.6908870  0.7252940  )
        39        O      tau(  39) = (  0.3176410  0.3091130  0.7747060  )
        40        O      tau(  40) = (  0.6306580  0.6899380  0.7901190  )
        41        O      tau(  41) = (  0.2000420  0.5130470  0.8540380  )
        42        O      tau(  42) = (  0.7623240  0.4904520  0.8661790  )
        43        O      tau(  43) = (  0.3671920  0.8414990  0.8776760  )
        44        O      tau(  44) = (  0.5785970  0.1854220  0.8895560  )
        45        O      tau(  45) = (  0.8221530  0.0449570  0.9533950  )
        46        O      tau(  46) = (  0.9576000  0.3005160  0.9937090  )

     number of k points=    71  Marzari-Vanderbilt smearing, width (Ry)=  0.0200
                       cart. coord. in units 2pi/alat
        k(    1) = (   0.0000000   0.0000000   0.0000000), wk =   0.0071429
        k(    2) = (   0.0000000   0.0000000   0.1513398), wk =   0.0142857
        k(    3) = (   0.0000000   0.0000000  -0.3026795), wk =   0.0071429
        k(    4) = (   0.0000000   0.1323466   0.0043204), wk =   0.0142857
        k(    5) = (   0.0000000   0.1323466   0.1556602), wk =   0.0142857
        k(    6) = (   0.0000000   0.1323466  -0.2983592), wk =   0.0142857
        k(    7) = (   0.0000000   0.1323466  -0.1470194), wk =   0.0142857
        k(    8) = (   0.0000000   0.2646932   0.0086408), wk =   0.0142857
        k(    9) = (   0.0000000   0.2646932   0.1599805), wk =   0.0142857
        k(   10) = (   0.0000000   0.2646932  -0.2940388), wk =   0.0142857
        k(   11) = (   0.0000000   0.2646932  -0.1426990), wk =   0.0142857
        k(   12) = (   0.1428571   0.0472666   0.0015430), wk =   0.0142857
        k(   13) = (   0.1428571   0.0472666   0.1528828), wk =   0.0142857
        k(   14) = (   0.1428571   0.0472666  -0.3011366), wk =   0.0142857
        k(   15) = (   0.1428571   0.0472666  -0.1497968), wk =   0.0142857
        k(   16) = (   0.1428571   0.1796132   0.0058634), wk =   0.0142857
        k(   17) = (   0.1428571   0.1796132   0.1572032), wk =   0.0142857
        k(   18) = (   0.1428571   0.1796132  -0.2968162), wk =   0.0142857
        k(   19) = (   0.1428571   0.1796132  -0.1454764), wk =   0.0142857
        k(   20) = (   0.1428571   0.3119598   0.0101838), wk =   0.0142857
        k(   21) = (   0.1428571   0.3119598   0.1615235), wk =   0.0142857
        k(   22) = (   0.1428571   0.3119598  -0.2924958), wk =   0.0142857
        k(   23) = (   0.1428571   0.3119598  -0.1411560), wk =   0.0142857
        k(   24) = (   0.1428571  -0.2174265  -0.0070978), wk =   0.0142857
        k(   25) = (   0.1428571  -0.2174265   0.1442420), wk =   0.0142857
        k(   26) = (   0.1428571  -0.2174265  -0.3097773), wk =   0.0142857
        k(   27) = (   0.1428571  -0.2174265  -0.1584375), wk =   0.0142857
        k(   28) = (   0.1428571  -0.0850799  -0.0027774), wk =   0.0142857
        k(   29) = (   0.1428571  -0.0850799   0.1485624), wk =   0.0142857
        k(   30) = (   0.1428571  -0.0850799  -0.3054569), wk =   0.0142857
        k(   31) = (   0.1428571  -0.0850799  -0.1541172), wk =   0.0142857
        k(   32) = (   0.2857143   0.0945333   0.0030860), wk =   0.0142857
        k(   33) = (   0.2857143   0.0945333   0.1544258), wk =   0.0142857
        k(   34) = (   0.2857143   0.0945333  -0.2995936), wk =   0.0142857
        k(   35) = (   0.2857143   0.0945333  -0.1482538), wk =   0.0142857
        k(   36) = (   0.2857143   0.2268798   0.0074064), wk =   0.0142857
        k(   37) = (   0.2857143   0.2268798   0.1587461), wk =   0.0142857
        k(   38) = (   0.2857143   0.2268798  -0.2952732), wk =   0.0142857
        k(   39) = (   0.2857143   0.2268798  -0.1439334), wk =   0.0142857
        k(   40) = (   0.2857143   0.3592264   0.0117268), wk =   0.0142857
        k(   41) = (   0.2857143   0.3592264   0.1630665), wk =   0.0142857
        k(   42) = (   0.2857143   0.3592264  -0.2909528), wk =   0.0142857
        k(   43) = (   0.2857143   0.3592264  -0.1396130), wk =   0.0142857
        k(   44) = (   0.2857143  -0.1701599  -0.0055548), wk =   0.0142857
        k(   45) = (   0.2857143  -0.1701599   0.1457850), wk =   0.0142857
        k(   46) = (   0.2857143  -0.1701599  -0.3082343), wk =   0.0142857
        k(   47) = (   0.2857143  -0.1701599  -0.1568946), wk =   0.0142857
        k(   48) = (   0.2857143  -0.0378133  -0.0012344), wk =   0.0142857
        k(   49) = (   0.2857143  -0.0378133   0.1501054), wk =   0.0142857
        k(   50) = (   0.2857143  -0.0378133  -0.3039139), wk =   0.0142857
        k(   51) = (   0.2857143  -0.0378133  -0.1525742), wk =   0.0142857
        k(   52) = (   0.4285714   0.1417999   0.0046290), wk =   0.0142857
        k(   53) = (   0.4285714   0.1417999   0.1559688), wk =   0.0142857
        k(   54) = (   0.4285714   0.1417999  -0.2980506), wk =   0.0142857
        k(   55) = (   0.4285714   0.1417999  -0.1467108), wk =   0.0142857
        k(   56) = (   0.4285714   0.2741465   0.0089494), wk =   0.0142857
        k(   57) = (   0.4285714   0.2741465   0.1602891), wk =   0.0142857
        k(   58) = (   0.4285714   0.2741465  -0.2937302), wk =   0.0142857
        k(   59) = (   0.4285714   0.2741465  -0.1423904), wk =   0.0142857
        k(   60) = (   0.4285714   0.4064931   0.0132698), wk =   0.0142857
        k(   61) = (   0.4285714   0.4064931   0.1646095), wk =   0.0142857
        k(   62) = (   0.4285714   0.4064931  -0.2894098), wk =   0.0142857
        k(   63) = (   0.4285714   0.4064931  -0.1380700), wk =   0.0142857
        k(   64) = (   0.4285714  -0.1228932  -0.0040118), wk =   0.0142857
        k(   65) = (   0.4285714  -0.1228932   0.1473280), wk =   0.0142857
        k(   66) = (   0.4285714  -0.1228932  -0.3066913), wk =   0.0142857
        k(   67) = (   0.4285714  -0.1228932  -0.1553516), wk =   0.0142857
        k(   68) = (   0.4285714   0.0094533   0.0003086), wk =   0.0142857
        k(   69) = (   0.4285714   0.0094533   0.1516484), wk =   0.0142857
        k(   70) = (   0.4285714   0.0094533  -0.3023709), wk =   0.0142857
        k(   71) = (   0.4285714   0.0094533  -0.1510312), wk =   0.0142857

                       cryst. coord.
        k(    1) = (   0.0000000   0.0000000   0.0000000), wk =   0.0071429
        k(    2) = (   0.0000000   0.0000000   0.2500000), wk =   0.0142857
        k(    3) = (   0.0000000   0.0000000  -0.5000000), wk =   0.0071429
        k(    4) = (   0.0000000   0.2000000  -0.0000000), wk =   0.0142857
        k(    5) = (   0.0000000   0.2000000   0.2500000), wk =   0.0142857
        k(    6) = (   0.0000000   0.2000000  -0.5000000), wk =   0.0142857
        k(    7) = (   0.0000000   0.2000000  -0.2500000), wk =   0.0142857
        k(    8) = (   0.0000000   0.4000000  -0.0000000), wk =   0.0142857
        k(    9) = (   0.0000000   0.4000000   0.2500000), wk =   0.0142857
        k(   10) = (   0.0000000   0.4000000  -0.5000000), wk =   0.0142857
        k(   11) = (   0.0000000   0.4000000  -0.2500000), wk =   0.0142857
        k(   12) = (   0.1428571   0.0000000   0.0000000), wk =   0.0142857
        k(   13) = (   0.1428571   0.0000000   0.2500000), wk =   0.0142857
        k(   14) = (   0.1428571   0.0000000  -0.5000000), wk =   0.0142857
        k(   15) = (   0.1428571   0.0000000  -0.2500000), wk =   0.0142857
        k(   16) = (   0.1428571   0.2000000  -0.0000000), wk =   0.0142857
        k(   17) = (   0.1428571   0.2000000   0.2500000), wk =   0.0142857
        k(   18) = (   0.1428571   0.2000000  -0.5000000), wk =   0.0142857
        k(   19) = (   0.1428571   0.2000000  -0.2500000), wk =   0.0142857
        k(   20) = (   0.1428571   0.4000000   0.0000000), wk =   0.0142857
        k(   21) = (   0.1428571   0.4000000   0.2500000), wk =   0.0142857
        k(   22) = (   0.1428571   0.4000000  -0.5000000), wk =   0.0142857
        k(   23) = (   0.1428571   0.4000000  -0.2500000), wk =   0.0142857
        k(   24) = (   0.1428571  -0.4000000  -0.0000000), wk =   0.0142857
        k(   25) = (   0.1428571  -0.4000000   0.2500000), wk =   0.0142857
        k(   26) = (   0.1428571  -0.4000000  -0.5000000), wk =   0.0142857
        k(   27) = (   0.1428571  -0.4000000  -0.2500000), wk =   0.0142857
        k(   28) = (   0.1428571  -0.2000000   0.0000000), wk =   0.0142857
        k(   29) = (   0.1428571  -0.2000000   0.2500000), wk =   0.0142857
        k(   30) = (   0.1428571  -0.2000000  -0.5000000), wk =   0.0142857
        k(   31) = (   0.1428571  -0.2000000  -0.2500000), wk =   0.0142857
        k(   32) = (   0.2857143   0.0000000   0.0000000), wk =   0.0142857
        k(   33) = (   0.2857143   0.0000000   0.2500000), wk =   0.0142857
        k(   34) = (   0.2857143   0.0000000  -0.5000000), wk =   0.0142857
        k(   35) = (   0.2857143   0.0000000  -0.2500000), wk =   0.0142857
        k(   36) = (   0.2857143   0.2000000  -0.0000000), wk =   0.0142857
        k(   37) = (   0.2857143   0.2000000   0.2500000), wk =   0.0142857
        k(   38) = (   0.2857143   0.2000000  -0.5000000), wk =   0.0142857
        k(   39) = (   0.2857143   0.2000000  -0.2500000), wk =   0.0142857
        k(   40) = (   0.2857143   0.4000000  -0.0000000), wk =   0.0142857
        k(   41) = (   0.2857143   0.4000000   0.2500000), wk =   0.0142857
        k(   42) = (   0.2857143   0.4000000  -0.5000000), wk =   0.0142857
        k(   43) = (   0.2857143   0.4000000  -0.2500000), wk =   0.0142857
        k(   44) = (   0.2857143  -0.4000000  -0.0000000), wk =   0.0142857
        k(   45) = (   0.2857143  -0.4000000   0.2500000), wk =   0.0142857
        k(   46) = (   0.2857143  -0.4000000  -0.5000000), wk =   0.0142857
        k(   47) = (   0.2857143  -0.4000000  -0.2500000), wk =   0.0142857
        k(   48) = (   0.2857143  -0.2000000   0.0000000), wk =   0.0142857
        k(   49) = (   0.2857143  -0.2000000   0.2500000), wk =   0.0142857
        k(   50) = (   0.2857143  -0.2000000  -0.5000000), wk =   0.0142857
        k(   51) = (   0.2857143  -0.2000000  -0.2500000), wk =   0.0142857
        k(   52) = (   0.4285714  -0.0000000   0.0000000), wk =   0.0142857
        k(   53) = (   0.4285714  -0.0000000   0.2500000), wk =   0.0142857
        k(   54) = (   0.4285714  -0.0000000  -0.5000000), wk =   0.0142857
        k(   55) = (   0.4285714  -0.0000000  -0.2500000), wk =   0.0142857
        k(   56) = (   0.4285714   0.2000000  -0.0000000), wk =   0.0142857
        k(   57) = (   0.4285714   0.2000000   0.2500000), wk =   0.0142857
        k(   58) = (   0.4285714   0.2000000  -0.5000000), wk =   0.0142857
        k(   59) = (   0.4285714   0.2000000  -0.2500000), wk =   0.0142857
        k(   60) = (   0.4285714   0.4000000   0.0000000), wk =   0.0142857
        k(   61) = (   0.4285714   0.4000000   0.2500000), wk =   0.0142857
        k(   62) = (   0.4285714   0.4000000  -0.5000000), wk =   0.0142857
        k(   63) = (   0.4285714   0.4000000  -0.2500000), wk =   0.0142857
        k(   64) = (   0.4285714  -0.4000000   0.0000000), wk =   0.0142857
        k(   65) = (   0.4285714  -0.4000000   0.2500000), wk =   0.0142857
        k(   66) = (   0.4285714  -0.4000000  -0.5000000), wk =   0.0142857
        k(   67) = (   0.4285714  -0.4000000  -0.2500000), wk =   0.0142857
        k(   68) = (   0.4285714  -0.2000000  -0.0000000), wk =   0.0142857
        k(   69) = (   0.4285714  -0.2000000   0.2500000), wk =   0.0142857
        k(   70) = (   0.4285714  -0.2000000  -0.5000000), wk =   0.0142857
        k(   71) = (   0.4285714  -0.2000000  -0.2500000), wk =   0.0142857

     Dense  grid:   587521 G-vectors     FFT dimensions: (  80, 125, 128)

     Smooth grid:   207723 G-vectors     FFT dimensions: (  60,  90,  90)

     Dynamical RAM for                 wfc:      75.29 MB

     Dynamical RAM for     wfc (w. buffer):   10765.85 MB

     Dynamical RAM for             U proj.:      11.89 MB

     Dynamical RAM for  U proj. (w. buff.):    1699.87 MB

     Dynamical RAM for           str. fact:      26.89 MB

     Dynamical RAM for           local pot:       0.00 MB

     Dynamical RAM for          nlocal pot:     201.29 MB

     Dynamical RAM for                qrad:       9.63 MB

     Dynamical RAM for          rho,v,vnew:     112.38 MB

     Dynamical RAM for               rhoin:      37.46 MB

     Dynamical RAM for            rho*nmix:     286.88 MB

     Dynamical RAM for           G-vectors:      35.20 MB

     Dynamical RAM for          h,s,v(r/c):       1.65 MB

     Dynamical RAM for          <psi|beta>:       1.47 MB

     Dynamical RAM for      wfcinit/wfcrot:     151.40 MB

     Dynamical RAM for           addusdens:    1963.30 MB

     Dynamical RAM for          addusforce:    2519.38 MB

     Dynamical RAM for         addusstress:    1815.38 MB

     Estimated static dynamical RAM per process >      12.68 GB

     Estimated max dynamical RAM per process >      15.42 GB

     Check: negative core charge=   -0.000003
     Generating pointlists ...
     new r_m :   0.1265 (alat units)  1.5224 (a.u.) for type    1
     new r_m :   0.0979 (alat units)  1.1785 (a.u.) for type    2
     new r_m :   0.0979 (alat units)  1.1785 (a.u.) for type    3

     Initial potential from superposition of free atoms

     starting charge     309.9986, renormalised to     316.0000

     negative rho (up, down):  3.881E-03 1.820E-03

     HUBBARD ENERGY =    0.7197  (Ry)

     STARTING HUBBARD OCCUPATIONS:

     =================== HUBBARD OCCUPATIONS ===================
     ------------------------ ATOM    1 ------------------------
     Tr[ns(  1)] (up, down, total) =   3.40000  0.00000  3.40000
     Atomic magnetic moment for atom   1 =   3.40000
     SPIN  1
     eigenvalues:
       0.680  0.680  0.680  0.680  0.680
     eigenvectors (columns):
       1.000  0.000  0.000  0.000  0.000
       0.000  1.000  0.000  0.000  0.000
       0.000  0.000  1.000  0.000  0.000
       0.000  0.000  0.000  1.000  0.000
       0.000  0.000  0.000  0.000  1.000
     occupation matrix ns (before diag.):
       0.680  0.000  0.000  0.000  0.000
       0.000  0.680  0.000  0.000  0.000
       0.000  0.000  0.680  0.000  0.000
       0.000  0.000  0.000  0.680  0.000
       0.000  0.000  0.000  0.000  0.680
     SPIN  2
     eigenvalues:
       0.000  0.000  0.000  0.000  0.000
     eigenvectors (columns):
       1.000  0.000  0.000  0.000  0.000
       0.000  1.000  0.000  0.000  0.000
       0.000  0.000  1.000  0.000  0.000
       0.000  0.000  0.000  1.000  0.000
       0.000  0.000  0.000  0.000  1.000
     occupation matrix ns (before diag.):
       0.000  0.000  0.000  0.000  0.000
       0.000  0.000  0.000  0.000  0.000
       0.000  0.000  0.000  0.000  0.000
       0.000  0.000  0.000  0.000  0.000
       0.000  0.000  0.000  0.000  0.000
     ------------------------ ATOM    2 ------------------------
     Tr[ns(  2)] (up, down, total) =   3.40000  0.00000  3.40000
     Atomic magnetic moment for atom   2 =   3.40000
     SPIN  1
     eigenvalues:
       0.680  0.680  0.680  0.680  0.680
     eigenvectors (columns):
       1.000  0.000  0.000  0.000  0.000
       0.000  1.000  0.000  0.000  0.000
       0.000  0.000  1.000  0.000  0.000
       0.000  0.000  0.000  1.000  0.000
       0.000  0.000  0.000  0.000  1.000
     occupation matrix ns (before diag.):
       0.680  0.000  0.000  0.000  0.000
       0.000  0.680  0.000  0.000  0.000
       0.000  0.000  0.680  0.000  0.000
       0.000  0.000  0.000  0.680  0.000
       0.000  0.000  0.000  0.000  0.680
     SPIN  2
     eigenvalues:
       0.000  0.000  0.000  0.000  0.000
     eigenvectors (columns):
       1.000  0.000  0.000  0.000  0.000
       0.000  1.000  0.000  0.000  0.000
       0.000  0.000  1.000  0.000  0.000
       0.000  0.000  0.000  1.000  0.000
       0.000  0.000  0.000  0.000  1.000
     occupation matrix ns (before diag.):
       0.000  0.000  0.000  0.000  0.000
       0.000  0.000  0.000  0.000  0.000
       0.000  0.000  0.000  0.000  0.000
       0.000  0.000  0.000  0.000  0.000
       0.000  0.000  0.000  0.000  0.000
     ------------------------ ATOM    3 ------------------------
     Tr[ns(  3)] (up, down, total) =   3.40000  0.00000  3.40000
     Atomic magnetic moment for atom   3 =   3.40000
     SPIN  1
     eigenvalues:
       0.680  0.680  0.680  0.680  0.680
     eigenvectors (columns):
       1.000  0.000  0.000  0.000  0.000
       0.000  1.000  0.000  0.000  0.000
       0.000  0.000  1.000  0.000  0.000
       0.000  0.000  0.000  1.000  0.000
       0.000  0.000  0.000  0.000  1.000
     occupation matrix ns (before diag.):
       0.680  0.000  0.000  0.000  0.000
       0.000  0.680  0.000  0.000  0.000
       0.000  0.000  0.680  0.000  0.000
       0.000  0.000  0.000  0.680  0.000
       0.000  0.000  0.000  0.000  0.680
     SPIN  2
     eigenvalues:
       0.000  0.000  0.000  0.000  0.000
     eigenvectors (columns):
       1.000  0.000  0.000  0.000  0.000
       0.000  1.000  0.000  0.000  0.000
       0.000  0.000  1.000  0.000  0.000
       0.000  0.000  0.000  1.000  0.000
       0.000  0.000  0.000  0.000  1.000
     occupation matrix ns (before diag.):
       0.000  0.000  0.000  0.000  0.000
       0.000  0.000  0.000  0.000  0.000
       0.000  0.000  0.000  0.000  0.000
       0.000  0.000  0.000  0.000  0.000
       0.000  0.000  0.000  0.000  0.000
     ------------------------ ATOM    4 ------------------------
     Tr[ns(  4)] (up, down, total) =   3.40000  0.00000  3.40000
     Atomic magnetic moment for atom   4 =   3.40000
     SPIN  1
     eigenvalues:
       0.680  0.680  0.680  0.680  0.680
     eigenvectors (columns):
       1.000  0.000  0.000  0.000  0.000
       0.000  1.000  0.000  0.000  0.000
       0.000  0.000  1.000  0.000  0.000
       0.000  0.000  0.000  1.000  0.000
       0.000  0.000  0.000  0.000  1.000
     occupation matrix ns (before diag.):
       0.680  0.000  0.000  0.000  0.000
       0.000  0.680  0.000  0.000  0.000
       0.000  0.000  0.680  0.000  0.000
       0.000  0.000  0.000  0.680  0.000
       0.000  0.000  0.000  0.000  0.680
     SPIN  2
     eigenvalues:
       0.000  0.000  0.000  0.000  0.000
     eigenvectors (columns):
       1.000  0.000  0.000  0.000  0.000
       0.000  1.000  0.000  0.000  0.000
       0.000  0.000  1.000  0.000  0.000
       0.000  0.000  0.000  1.000  0.000
       0.000  0.000  0.000  0.000  1.000
     occupation matrix ns (before diag.):
       0.000  0.000  0.000  0.000  0.000
       0.000  0.000  0.000  0.000  0.000
       0.000  0.000  0.000  0.000  0.000
       0.000  0.000  0.000  0.000  0.000
       0.000  0.000  0.000  0.000  0.000
     ------------------------ ATOM    5 ------------------------
     Tr[ns(  5)] (up, down, total) =   3.40000  0.00000  3.40000
     Atomic magnetic moment for atom   5 =   3.40000
     SPIN  1
     eigenvalues:
       0.680  0.680  0.680  0.680  0.680
     eigenvectors (columns):
       1.000  0.000  0.000  0.000  0.000
       0.000  1.000  0.000  0.000  0.000
       0.000  0.000  1.000  0.000  0.000
       0.000  0.000  0.000  1.000  0.000
       0.000  0.000  0.000  0.000  1.000
     occupation matrix ns (before diag.):
       0.680  0.000  0.000  0.000  0.000
       0.000  0.680  0.000  0.000  0.000
       0.000  0.000  0.680  0.000  0.000
       0.000  0.000  0.000  0.680  0.000
       0.000  0.000  0.000  0.000  0.680
     SPIN  2
     eigenvalues:
       0.000  0.000  0.000  0.000  0.000
     eigenvectors (columns):
       1.000  0.000  0.000  0.000  0.000
       0.000  1.000  0.000  0.000  0.000
       0.000  0.000  1.000  0.000  0.000
       0.000  0.000  0.000  1.000  0.000
       0.000  0.000  0.000  0.000  1.000
     occupation matrix ns (before diag.):
       0.000  0.000  0.000  0.000  0.000
       0.000  0.000  0.000  0.000  0.000
       0.000  0.000  0.000  0.000  0.000
       0.000  0.000  0.000  0.000  0.000
       0.000  0.000  0.000  0.000  0.000
     ------------------------ ATOM    6 ------------------------
     Tr[ns(  6)] (up, down, total) =   3.40000  0.00000  3.40000
     Atomic magnetic moment for atom   6 =   3.40000
     SPIN  1
     eigenvalues:
       0.680  0.680  0.680  0.680  0.680
     eigenvectors (columns):
       1.000  0.000  0.000  0.000  0.000
       0.000  1.000  0.000  0.000  0.000
       0.000  0.000  1.000  0.000  0.000
       0.000  0.000  0.000  1.000  0.000
       0.000  0.000  0.000  0.000  1.000
     occupation matrix ns (before diag.):
       0.680  0.000  0.000  0.000  0.000
       0.000  0.680  0.000  0.000  0.000
       0.000  0.000  0.680  0.000  0.000
       0.000  0.000  0.000  0.680  0.000
       0.000  0.000  0.000  0.000  0.680
     SPIN  2
     eigenvalues:
       0.000  0.000  0.000  0.000  0.000
     eigenvectors (columns):
       1.000  0.000  0.000  0.000  0.000
       0.000  1.000  0.000  0.000  0.000
       0.000  0.000  1.000  0.000  0.000
       0.000  0.000  0.000  1.000  0.000
       0.000  0.000  0.000  0.000  1.000
     occupation matrix ns (before diag.):
       0.000  0.000  0.000  0.000  0.000
       0.000  0.000  0.000  0.000  0.000
       0.000  0.000  0.000  0.000  0.000
       0.000  0.000  0.000  0.000  0.000
       0.000  0.000  0.000  0.000  0.000

     Number of occupied Hubbard levels =   20.4000

     Atomic wfc used for Hubbard projectors are orthogonalized

     Starting wfcs are  220 randomized atomic wfcs
     Checking if some PAW data can be deallocated... 

     total cpu time spent up to now is       18.0 secs

     Self-consistent Calculation
[tb_dev] Currently allocated     3.18E+00 Mbytes, locked:    0 /   3
[tb_pin] Currently allocated     0.00E+00 Mbytes, locked:    0 /   0

     iteration #  1     ecut=    50.00 Ry     beta= 0.70
     CG style diagonalization

---- Real-time Memory Report at c_bands before calling an iterative solver
         13519 MiB given to the printing process from OS
             0 MiB allocation reported by mallinfo(arena+hblkhd)
        446116 MiB available memory on the node where the printing process lives
     GPU memory used/free/total (MiB): 4610 / 60334 / 64944
------------------
     ethr =  1.00E-02,  avg # of iterations =  3.0

     =================== HUBBARD OCCUPATIONS ===================
     ------------------------ ATOM    1 ------------------------
     Tr[ns(  1)] (up, down, total) =   4.27006  0.37179  4.64184
     Atomic magnetic moment for atom   1 =   3.89827
     SPIN  1
     eigenvalues:
       0.412  0.891  0.986  0.989  0.992
     eigenvectors (columns):
      -0.551 -0.022 -0.064  0.051  0.830
      -0.174 -0.973 -0.030  0.023 -0.145
      -0.071  0.033  0.382  0.918 -0.073
      -0.786  0.226 -0.223 -0.019 -0.531
      -0.211  0.008  0.894 -0.392 -0.047
     occupation matrix ns (before diag.):
       0.816 -0.058 -0.023 -0.251 -0.067
      -0.058  0.879 -0.004 -0.057 -0.020
      -0.023 -0.004  0.985 -0.033 -0.009
      -0.251 -0.057 -0.033  0.629 -0.095
      -0.067 -0.020 -0.009 -0.095  0.961
     SPIN  2
     eigenvalues:
       0.034  0.042  0.051  0.108  0.136
     eigenvectors (columns):
      -0.727  0.393  0.004 -0.017  0.563
       0.089 -0.104 -0.053 -0.976  0.158
      -0.009 -0.140  0.987 -0.027  0.079
       0.381 -0.415 -0.113  0.213  0.790
       0.564  0.802  0.105 -0.013  0.167
     occupation matrix ns (before diag.):
       0.068  0.010  0.004  0.044  0.012
       0.010  0.107  0.002 -0.002  0.003
       0.004  0.002  0.052  0.005  0.002
       0.044 -0.002  0.005  0.103  0.010
       0.012  0.003  0.002  0.010  0.042
     ------------------------ ATOM    2 ------------------------
     Tr[ns(  2)] (up, down, total) =   3.62277  0.36505  3.98782
     Atomic magnetic moment for atom   2 =   3.25773
     SPIN  1
     eigenvalues:
       0.305  0.351  0.984  0.989  0.994
     eigenvectors (columns):
      -0.433 -0.063 -0.764 -0.238  0.411
      -0.236 -0.063 -0.289 -0.190 -0.906
      -0.191  0.970  0.065 -0.136 -0.010
       0.848  0.173 -0.465 -0.178 -0.047
      -0.025  0.147 -0.335  0.926 -0.091
     occupation matrix ns (before diag.):
       0.856 -0.075 -0.017  0.256 -0.003
      -0.075  0.952  0.008  0.143  0.002
      -0.017  0.008  0.364  0.004 -0.094
       0.256  0.143  0.004  0.477 -0.003
      -0.003  0.002 -0.094 -0.003  0.974
     SPIN  2
     eigenvalues:
       0.039  0.042  0.048  0.117  0.120
     eigenvectors (columns):
       0.290  0.131 -0.829  0.421  0.185
       0.863 -0.069  0.431  0.244  0.074
       0.011  0.171  0.052 -0.361  0.915
       0.414  0.057 -0.318 -0.792 -0.310
       0.004 -0.972 -0.152 -0.071  0.163
     occupation matrix ns (before diag.):
       0.062  0.006  0.002 -0.028  0.001
       0.006  0.046 -0.001 -0.018 -0.001
       0.002 -0.001  0.117 -0.001  0.014
      -0.028 -0.018 -0.001  0.096  0.001
       0.001 -0.001  0.014  0.001  0.044
     ------------------------ ATOM    3 ------------------------
     Tr[ns(  3)] (up, down, total) =   3.62277  0.36505  3.98782
     Atomic magnetic moment for atom   3 =   3.25773
     SPIN  1
     eigenvalues:
       0.305  0.351  0.984  0.989  0.994
     eigenvectors (columns):
      -0.433  0.063 -0.764  0.238  0.411
       0.236 -0.063  0.289 -0.190  0.906
      -0.191 -0.970  0.065  0.136 -0.010
       0.848 -0.173 -0.465  0.178 -0.047
       0.025  0.147  0.335  0.926  0.091
     occupation matrix ns (before diag.):
       0.856  0.075 -0.017  0.256  0.003
       0.075  0.952 -0.008 -0.143  0.002
      -0.017 -0.008  0.364  0.004  0.094
       0.256 -0.143  0.004  0.477  0.003
       0.003  0.002  0.094  0.003  0.974
     SPIN  2
     eigenvalues:
       0.039  0.042  0.048  0.117  0.120
     eigenvectors (columns):
       0.290 -0.131 -0.829  0.421 -0.185
      -0.863 -0.069 -0.431 -0.244  0.074
       0.011 -0.171  0.052 -0.361 -0.915
       0.414 -0.057 -0.318 -0.792  0.310
      -0.004 -0.972  0.152  0.071  0.163
     occupation matrix ns (before diag.):
       0.062 -0.006  0.002 -0.028 -0.001
      -0.006  0.046  0.001  0.018 -0.001
       0.002  0.001  0.117 -0.001 -0.014
      -0.028  0.018 -0.001  0.096 -0.001
      -0.001 -0.001 -0.014 -0.001  0.044
     ------------------------ ATOM    4 ------------------------
     Tr[ns(  4)] (up, down, total) =   4.27006  0.37179  4.64184
     Atomic magnetic moment for atom   4 =   3.89827
     SPIN  1
     eigenvalues:
       0.412  0.891  0.986  0.989  0.992
     eigenvectors (columns):
      -0.551  0.022  0.064  0.051  0.830
       0.174 -0.973 -0.030 -0.023  0.145
      -0.071 -0.033 -0.382  0.918 -0.073
      -0.786 -0.226  0.223 -0.019 -0.531
       0.211  0.008  0.894  0.392  0.047
     occupation matrix ns (before diag.):
       0.816  0.058 -0.023 -0.251  0.067
       0.058  0.879  0.004  0.057 -0.020
      -0.023  0.004  0.985 -0.033  0.009
      -0.251  0.057 -0.033  0.629  0.095
       0.067 -0.020  0.009  0.095  0.961
     SPIN  2
     eigenvalues:
       0.034  0.042  0.051  0.108  0.136
     eigenvectors (columns):
      -0.727 -0.393  0.004 -0.017 -0.563
      -0.089 -0.104  0.053  0.976  0.158
      -0.009  0.140  0.987 -0.027 -0.079
       0.381  0.415 -0.113  0.213 -0.790
      -0.564  0.802 -0.105  0.013  0.167
     occupation matrix ns (before diag.):
       0.068 -0.010  0.004  0.044 -0.012
      -0.010  0.107 -0.002  0.002  0.003
       0.004 -0.002  0.052  0.005 -0.002
       0.044  0.002  0.005  0.103 -0.010
      -0.012  0.003 -0.002 -0.010  0.042
     ------------------------ ATOM    5 ------------------------
     Tr[ns(  5)] (up, down, total) =   3.62277  0.36505  3.98782
     Atomic magnetic moment for atom   5 =   3.25773
     SPIN  1
     eigenvalues:
       0.305  0.351  0.984  0.989  0.994
     eigenvectors (columns):
      -0.433  0.063 -0.764  0.238  0.411
       0.236 -0.063  0.289 -0.190  0.906
      -0.191 -0.970  0.065  0.136 -0.010
       0.848 -0.173 -0.465  0.178 -0.047
       0.025  0.147  0.335  0.926  0.091
     occupation matrix ns (before diag.):
       0.856  0.075 -0.017  0.256  0.003
       0.075  0.952 -0.008 -0.143  0.002
      -0.017 -0.008  0.364  0.004  0.094
       0.256 -0.143  0.004  0.477  0.003
       0.003  0.002  0.094  0.003  0.974
     SPIN  2
     eigenvalues:
       0.039  0.042  0.048  0.117  0.120
     eigenvectors (columns):
       0.290 -0.131 -0.829  0.421 -0.185
      -0.863 -0.069 -0.431 -0.244  0.074
       0.011 -0.171  0.052 -0.361 -0.915
       0.414 -0.057 -0.318 -0.792  0.310
      -0.004 -0.972  0.152  0.071  0.163
     occupation matrix ns (before diag.):
       0.062 -0.006  0.002 -0.028 -0.001
      -0.006  0.046  0.001  0.018 -0.001
       0.002  0.001  0.117 -0.001 -0.014
      -0.028  0.018 -0.001  0.096 -0.001
      -0.001 -0.001 -0.014 -0.001  0.044
     ------------------------ ATOM    6 ------------------------
     Tr[ns(  6)] (up, down, total) =   3.62277  0.36505  3.98782
     Atomic magnetic moment for atom   6 =   3.25773
     SPIN  1
     eigenvalues:
       0.305  0.351  0.984  0.989  0.994
     eigenvectors (columns):
      -0.433 -0.063 -0.764 -0.238  0.411
      -0.236 -0.063 -0.289 -0.190 -0.906
      -0.191  0.970  0.065 -0.136 -0.010
       0.848  0.173 -0.465 -0.178 -0.047
      -0.025  0.147 -0.335  0.926 -0.091
     occupation matrix ns (before diag.):
       0.856 -0.075 -0.017  0.256 -0.003
      -0.075  0.952  0.008  0.143  0.002
      -0.017  0.008  0.364  0.004 -0.094
       0.256  0.143  0.004  0.477 -0.003
      -0.003  0.002 -0.094 -0.003  0.974
     SPIN  2
     eigenvalues:
       0.039  0.042  0.048  0.117  0.120
     eigenvectors (columns):
       0.290  0.131 -0.829  0.421  0.185
       0.863 -0.069  0.431  0.244  0.074
       0.011  0.171  0.052 -0.361  0.915
       0.414  0.057 -0.318 -0.792 -0.310
       0.004 -0.972 -0.152 -0.071  0.163
     occupation matrix ns (before diag.):
       0.062  0.006  0.002 -0.028  0.001
       0.006  0.046 -0.001 -0.018 -0.001
       0.002 -0.001  0.117 -0.001  0.014
      -0.028 -0.018 -0.001  0.096  0.001
       0.001 -0.001  0.014  0.001  0.044

     Number of occupied Hubbard levels =   25.2350

     negative rho (up, down):  0.000E+00 1.635E-02

     HUBBARD ENERGY =    0.5109  (Ry)

     total cpu time spent up to now is      386.8 secs

     total energy              =   -2466.63808838 Ry
     estimated scf accuracy    <      14.15791538 Ry

     total magnetization       =    27.78 Bohr mag/cell
     absolute magnetization    =    29.38 Bohr mag/cell
[tb_dev] Currently allocated     0.00E+00 Mbytes, locked:    0 /   0
[tb_pin] Currently allocated     0.00E+00 Mbytes, locked:    0 /   0

     iteration #  2     ecut=    50.00 Ry     beta= 0.70
     CG style diagonalization

---- Real-time Memory Report at c_bands before calling an iterative solver
         13597 MiB given to the printing process from OS
             0 MiB allocation reported by mallinfo(arena+hblkhd)
        446017 MiB available memory on the node where the printing process lives
     GPU memory used/free/total (MiB): 4716 / 60228 / 64944
------------------
     ethr =  4.48E-03,  avg # of iterations =  5.0

     =================== HUBBARD OCCUPATIONS ===================
     ------------------------ ATOM    1 ------------------------
     Tr[ns(  1)] (up, down, total) =   0.44763  0.23640  0.68404
     Atomic magnetic moment for atom   1 =   0.21123
     SPIN  1
     eigenvalues:
       0.034  0.043  0.081  0.119  0.170
     eigenvectors (columns):
      -0.032  0.113 -0.584  0.796  0.111
      -0.020  0.111  0.127 -0.061  0.984
      -0.282 -0.948 -0.014  0.098  0.109
      -0.195  0.096  0.789  0.569 -0.081
       0.939 -0.259  0.142  0.173  0.041
     occupation matrix ns (before diag.):
       0.106  0.007  0.008  0.016  0.008
       0.007  0.167  0.013 -0.009  0.005
       0.008  0.013  0.044  0.002  0.004
       0.016 -0.009  0.002  0.092  0.013
       0.008  0.005  0.004  0.013  0.038
     SPIN  2
     eigenvalues:
       0.014  0.019  0.026  0.083  0.094
     eigenvectors (columns):
      -0.118  0.139  0.797  0.389 -0.425
      -0.023  0.059 -0.140 -0.600 -0.785
      -0.210 -0.970  0.077  0.020 -0.096
      -0.137  0.039 -0.582  0.685 -0.413
       0.960 -0.188  0.028  0.136 -0.152
     occupation matrix ns (before diag.):
       0.047  0.009  0.004  0.027  0.009
       0.009  0.088  0.005 -0.001  0.004
       0.004  0.005  0.019  0.003  0.002
       0.027 -0.001  0.003  0.064  0.011
       0.009  0.004  0.002  0.011  0.018
     ------------------------ ATOM    2 ------------------------
     Tr[ns(  2)] (up, down, total) =   4.34687  0.91353  5.26040
     Atomic magnetic moment for atom   2 =   3.43334
     SPIN  1
     eigenvalues:
       0.642  0.734  0.988  0.990  0.992
     eigenvectors (columns):
      -0.386  0.076 -0.467 -0.754  0.240
      -0.240  0.080  0.865 -0.428 -0.072
      -0.206 -0.961 -0.006 -0.046 -0.180
       0.866 -0.179  0.037 -0.458  0.082
      -0.034 -0.180  0.180  0.189  0.948
     occupation matrix ns (before diag.):
       0.937 -0.033 -0.009  0.120 -0.001
      -0.033  0.967  0.003  0.076  0.000
      -0.009  0.003  0.739  0.018 -0.047
       0.120  0.076  0.018  0.721  0.002
      -0.001  0.000 -0.047  0.002  0.983
     SPIN  2
     eigenvalues:
       0.061  0.123  0.155  0.236  0.338
     eigenvectors (columns):
      -0.887 -0.377 -0.033  0.259 -0.052
      -0.323  0.917  0.037  0.230 -0.007
      -0.070  0.011 -0.290 -0.069  0.952
      -0.319  0.121  0.003 -0.935 -0.092
      -0.039 -0.045  0.956 -0.018  0.288
     occupation matrix ns (before diag.):
       0.083 -0.011 -0.016 -0.044 -0.007
      -0.011  0.122 -0.005 -0.031 -0.001
      -0.016 -0.005  0.321 -0.013  0.050
      -0.044 -0.031 -0.013  0.218 -0.004
      -0.007 -0.001  0.050 -0.004  0.170
     ------------------------ ATOM    3 ------------------------
     Tr[ns(  3)] (up, down, total) =   4.34687  0.91353  5.26040
     Atomic magnetic moment for atom   3 =   3.43334
     SPIN  1
     eigenvalues:
       0.642  0.734  0.988  0.990  0.992
     eigenvectors (columns):
      -0.386 -0.076 -0.467 -0.754 -0.240
       0.240  0.080 -0.865  0.428 -0.072
      -0.206  0.961 -0.006 -0.046  0.180
       0.866  0.179  0.037 -0.458 -0.082
       0.034 -0.180 -0.180 -0.189  0.948
     occupation matrix ns (before diag.):
       0.937  0.033 -0.009  0.120  0.001
       0.033  0.967 -0.003 -0.076  0.000
      -0.009 -0.003  0.739  0.018  0.047
       0.120 -0.076  0.018  0.721 -0.002
       0.001  0.000  0.047 -0.002  0.983
     SPIN  2
     eigenvalues:
       0.061  0.123  0.155  0.236  0.338
     eigenvectors (columns):
      -0.887 -0.377  0.033  0.259  0.052
       0.323 -0.917  0.037 -0.230 -0.007
      -0.070  0.011  0.290 -0.069 -0.952
      -0.319  0.121 -0.003 -0.935  0.092
       0.039  0.045  0.956  0.018  0.288
     occupation matrix ns (before diag.):
       0.083  0.011 -0.016 -0.044  0.007
       0.011  0.122  0.005  0.031 -0.001
      -0.016  0.005  0.321 -0.013 -0.050
      -0.044  0.031 -0.013  0.218  0.004
       0.007 -0.001 -0.050  0.004  0.170
     ------------------------ ATOM    4 ------------------------
     Tr[ns(  4)] (up, down, total) =   0.44763  0.23640  0.68404
     Atomic magnetic moment for atom   4 =   0.21123
     SPIN  1
     eigenvalues:
       0.034  0.043  0.081  0.119  0.170
     eigenvectors (columns):
       0.032  0.113 -0.584 -0.796  0.111
      -0.020 -0.111 -0.127 -0.061 -0.984
       0.282 -0.948 -0.014 -0.098  0.109
       0.195  0.096  0.789 -0.569 -0.081
       0.939  0.259 -0.142  0.173 -0.041
     occupation matrix ns (before diag.):
       0.106 -0.007  0.008  0.016 -0.008
      -0.007  0.167 -0.013  0.009  0.005
       0.008 -0.013  0.044  0.002 -0.004
       0.016  0.009  0.002  0.092 -0.013
      -0.008  0.005 -0.004 -0.013  0.038
     SPIN  2
     eigenvalues:
       0.014  0.019  0.026  0.083  0.094
     eigenvectors (columns):
       0.118  0.139  0.797 -0.389 -0.425
      -0.023 -0.059  0.140 -0.600  0.785
       0.210 -0.970  0.077 -0.020 -0.096
       0.137  0.039 -0.582 -0.685 -0.413
       0.960  0.188 -0.028  0.136  0.152
     occupation matrix ns (before diag.):
       0.047 -0.009  0.004  0.027 -0.009
      -0.009  0.088 -0.005  0.001  0.004
       0.004 -0.005  0.019  0.003 -0.002
       0.027  0.001  0.003  0.064 -0.011
      -0.009  0.004 -0.002 -0.011  0.018
     ------------------------ ATOM    5 ------------------------
     Tr[ns(  5)] (up, down, total) =   4.34687  0.91353  5.26040
     Atomic magnetic moment for atom   5 =   3.43334
     SPIN  1
     eigenvalues:
       0.642  0.734  0.988  0.990  0.992
     eigenvectors (columns):
      -0.386 -0.076 -0.467 -0.754 -0.240
       0.240  0.080 -0.865  0.428 -0.072
      -0.206  0.961 -0.006 -0.046  0.180
       0.866  0.179  0.037 -0.458 -0.082
       0.034 -0.180 -0.180 -0.189  0.948
     occupation matrix ns (before diag.):
       0.937  0.033 -0.009  0.120  0.001
       0.033  0.967 -0.003 -0.076  0.000
      -0.009 -0.003  0.739  0.018  0.047
       0.120 -0.076  0.018  0.721 -0.002
       0.001  0.000  0.047 -0.002  0.983
     SPIN  2
     eigenvalues:
       0.061  0.123  0.155  0.236  0.338
     eigenvectors (columns):
      -0.887 -0.377  0.033  0.259  0.052
       0.323 -0.917  0.037 -0.230 -0.007
      -0.070  0.011  0.290 -0.069 -0.952
      -0.319  0.121 -0.003 -0.935  0.092
       0.039  0.045  0.956  0.018  0.288
     occupation matrix ns (before diag.):
       0.083  0.011 -0.016 -0.044  0.007
       0.011  0.122  0.005  0.031 -0.001
      -0.016  0.005  0.321 -0.013 -0.050
      -0.044  0.031 -0.013  0.218  0.004
       0.007 -0.001 -0.050  0.004  0.170
     ------------------------ ATOM    6 ------------------------
     Tr[ns(  6)] (up, down, total) =   4.34687  0.91353  5.26040
     Atomic magnetic moment for atom   6 =   3.43334
     SPIN  1
     eigenvalues:
       0.642  0.734  0.988  0.990  0.992
     eigenvectors (columns):
      -0.386  0.076 -0.467 -0.754  0.240
      -0.240  0.080  0.865 -0.428 -0.072
      -0.206 -0.961 -0.006 -0.046 -0.180
       0.866 -0.179  0.037 -0.458  0.082
      -0.034 -0.180  0.180  0.189  0.948
     occupation matrix ns (before diag.):
       0.937 -0.033 -0.009  0.120 -0.001
      -0.033  0.967  0.003  0.076  0.000
      -0.009  0.003  0.739  0.018 -0.047
       0.120  0.076  0.018  0.721  0.002
      -0.001  0.000 -0.047  0.002  0.983
     SPIN  2
     eigenvalues:
       0.061  0.123  0.155  0.236  0.338
     eigenvectors (columns):
      -0.887 -0.377 -0.033  0.259 -0.052
      -0.323  0.917  0.037  0.230 -0.007
      -0.070  0.011 -0.290 -0.069  0.952
      -0.319  0.121  0.003 -0.935 -0.092
      -0.039 -0.045  0.956 -0.018  0.288
     occupation matrix ns (before diag.):
       0.083 -0.011 -0.016 -0.044 -0.007
      -0.011  0.122 -0.005 -0.031 -0.001
      -0.016 -0.005  0.321 -0.013  0.050
      -0.044 -0.031 -0.013  0.218 -0.004
      -0.007 -0.001  0.050 -0.004  0.170

     Number of occupied Hubbard levels =   22.4097

     negative rho (up, down):  0.000E+00 1.684E-02

     HUBBARD ENERGY =    0.6671  (Ry)

     total cpu time spent up to now is      893.9 secs

     total energy              =   -2462.21028734 Ry
     estimated scf accuracy    <      88.72274732 Ry

     total magnetization       =    14.32 Bohr mag/cell
     absolute magnetization    =    19.24 Bohr mag/cell
[tb_dev] Currently allocated     0.00E+00 Mbytes, locked:    0 /   0
[tb_pin] Currently allocated     0.00E+00 Mbytes, locked:    0 /   0

     iteration #  3     ecut=    50.00 Ry     beta= 0.70
     CG style diagonalization

---- Real-time Memory Report at c_bands before calling an iterative solver
         13630 MiB given to the printing process from OS
             0 MiB allocation reported by mallinfo(arena+hblkhd)
        446573 MiB available memory on the node where the printing process lives
     GPU memory used/free/total (MiB): 4716 / 60228 / 64944
------------------
     c_bands:  1 eigenvalues not converged
     c_bands:  1 eigenvalues not converged
     ethr =  4.48E-03,  avg # of iterations =  4.5

     =================== HUBBARD OCCUPATIONS ===================
     ------------------------ ATOM    1 ------------------------
     Tr[ns(  1)] (up, down, total) =   4.15743  0.56470  4.72213
     Atomic magnetic moment for atom   1 =   3.59273
     SPIN  1
     eigenvalues:
       0.465  0.742  0.967  0.990  0.994
     eigenvectors (columns):
      -0.558 -0.044 -0.823  0.042 -0.088
      -0.251  0.958  0.120 -0.059 -0.033
      -0.076  0.022 -0.056  0.015  0.995
      -0.728 -0.277  0.489 -0.392 -0.016
      -0.301 -0.055  0.256  0.917 -0.022
     occupation matrix ns (before diag.):
       0.811 -0.061 -0.023 -0.207 -0.084
      -0.061  0.729 -0.015 -0.032 -0.027
      -0.023 -0.015  0.990 -0.027 -0.011
      -0.207 -0.032 -0.027  0.687 -0.121
      -0.084 -0.027 -0.011 -0.121  0.940
     SPIN  2
     eigenvalues:
       0.041  0.055  0.095  0.173  0.201
     eigenvectors (columns):
      -0.244  0.165  0.789  0.102 -0.529
      -0.011 -0.025 -0.137 -0.913 -0.383
      -0.127 -0.982  0.121  0.035 -0.061
       0.000 -0.008 -0.546  0.393 -0.740
       0.961 -0.088  0.215  0.020 -0.147
     occupation matrix ns (before diag.):
       0.121  0.014  0.009  0.045  0.022
       0.014  0.175 -0.001  0.002  0.005
       0.009 -0.001  0.056  0.006  0.004
       0.045  0.002  0.006  0.165  0.012
       0.022  0.005  0.004  0.012  0.047
     ------------------------ ATOM    2 ------------------------
     Tr[ns(  2)] (up, down, total) =   2.29853  0.38658  2.68510
     Atomic magnetic moment for atom   2 =   1.91195
     SPIN  1
     eigenvalues:
       0.246  0.268  0.455  0.608  0.722
     eigenvectors (columns):
       0.397  0.086 -0.829 -0.163  0.348
       0.249 -0.032  0.475 -0.026  0.843
      -0.057  0.992  0.090 -0.066  0.001
      -0.882 -0.034 -0.244 -0.086  0.394
      -0.009  0.077 -0.140  0.980  0.115
     occupation matrix ns (before diag.):
       0.457  0.059 -0.010  0.112 -0.014
       0.059  0.632  0.009  0.135  0.023
      -0.010  0.009  0.271 -0.003 -0.024
       0.112  0.135 -0.003  0.335 -0.002
      -0.014  0.023 -0.024 -0.002  0.604
     SPIN  2
     eigenvalues:
       0.037  0.040  0.047  0.129  0.134
     eigenvectors (columns):
       0.258 -0.017  0.862 -0.417 -0.125
       0.872  0.135 -0.391 -0.255 -0.063
       0.037 -0.195 -0.016  0.280 -0.939
       0.397  0.027  0.317  0.824  0.250
      -0.120  0.971  0.058  0.062 -0.189
     occupation matrix ns (before diag.):
       0.062  0.007  0.001 -0.032  0.000
       0.007  0.045 -0.001 -0.022 -0.000
       0.001 -0.001  0.130 -0.002  0.018
      -0.032 -0.022 -0.002  0.106  0.000
       0.000 -0.000  0.018  0.000  0.044
     ------------------------ ATOM    3 ------------------------
     Tr[ns(  3)] (up, down, total) =   2.29853  0.38658  2.68510
     Atomic magnetic moment for atom   3 =   1.91195
     SPIN  1
     eigenvalues:
       0.246  0.268  0.455  0.608  0.722
     eigenvectors (columns):
       0.397 -0.086 -0.829 -0.163 -0.348
      -0.249 -0.032 -0.475  0.026  0.843
      -0.057 -0.992  0.090 -0.066 -0.001
      -0.882  0.034 -0.244 -0.086 -0.394
       0.009  0.077  0.140 -0.980  0.115
     occupation matrix ns (before diag.):
       0.457 -0.059 -0.010  0.112  0.014
      -0.059  0.632 -0.009 -0.135  0.023
      -0.010 -0.009  0.271 -0.003  0.024
       0.112 -0.135 -0.003  0.335  0.002
       0.014  0.023  0.024  0.002  0.604
     SPIN  2
     eigenvalues:
       0.037  0.040  0.047  0.129  0.134
     eigenvectors (columns):
       0.258  0.017  0.862 -0.417  0.125
      -0.872  0.135  0.391  0.255 -0.063
       0.037  0.195 -0.016  0.280  0.939
       0.397 -0.027  0.317  0.824 -0.250
       0.120  0.971 -0.058 -0.062 -0.189
     occupation matrix ns (before diag.):
       0.062 -0.007  0.001 -0.032 -0.000
      -0.007  0.045  0.001  0.022 -0.000
       0.001  0.001  0.130 -0.002 -0.018
      -0.032  0.022 -0.002  0.106 -0.000
      -0.000 -0.000 -0.018 -0.000  0.044
     ------------------------ ATOM    4 ------------------------
     Tr[ns(  4)] (up, down, total) =   4.15743  0.56470  4.72213
     Atomic magnetic moment for atom   4 =   3.59273
     SPIN  1
     eigenvalues:
       0.465  0.742  0.967  0.990  0.994
     eigenvectors (columns):
      -0.558  0.044 -0.823 -0.042 -0.088
       0.251  0.958 -0.120 -0.059  0.033
      -0.076 -0.022 -0.056 -0.015  0.995
      -0.728  0.277  0.489  0.392 -0.016
       0.301 -0.055 -0.256  0.917  0.022
     occupation matrix ns (before diag.):
       0.811  0.061 -0.023 -0.207  0.084
       0.061  0.729  0.015  0.032 -0.027
      -0.023  0.015  0.990 -0.027  0.011
      -0.207  0.032 -0.027  0.687  0.121
       0.084 -0.027  0.011  0.121  0.940
     SPIN  2
     eigenvalues:
       0.041  0.055  0.095  0.173  0.201
     eigenvectors (columns):
       0.244  0.165  0.789  0.102  0.529
      -0.011  0.025  0.137  0.913 -0.383
       0.127 -0.982  0.121  0.035  0.061
      -0.000 -0.008 -0.546  0.393  0.740
       0.961  0.088 -0.215 -0.020 -0.147
     occupation matrix ns (before diag.):
       0.121 -0.014  0.009  0.045 -0.022
      -0.014  0.175  0.001 -0.002  0.005
       0.009  0.001  0.056  0.006 -0.004
       0.045 -0.002  0.006  0.165 -0.012
      -0.022  0.005 -0.004 -0.012  0.047
     ------------------------ ATOM    5 ------------------------
     Tr[ns(  5)] (up, down, total) =   2.29853  0.38658  2.68510
     Atomic magnetic moment for atom   5 =   1.91195
     SPIN  1
     eigenvalues:
       0.246  0.268  0.455  0.608  0.722
     eigenvectors (columns):
       0.397 -0.086 -0.829 -0.163 -0.348
      -0.249 -0.032 -0.475  0.026  0.843
      -0.057 -0.992  0.090 -0.066 -0.001
      -0.882  0.034 -0.244 -0.086 -0.394
       0.009  0.077  0.140 -0.980  0.115
     occupation matrix ns (before diag.):
       0.457 -0.059 -0.010  0.112  0.014
      -0.059  0.632 -0.009 -0.135  0.023
      -0.010 -0.009  0.271 -0.003  0.024
       0.112 -0.135 -0.003  0.335  0.002
       0.014  0.023  0.024  0.002  0.604
     SPIN  2
     eigenvalues:
       0.037  0.040  0.047  0.129  0.134
     eigenvectors (columns):
       0.258  0.017  0.862 -0.417  0.125
      -0.872  0.135  0.391  0.255 -0.063
       0.037  0.195 -0.016  0.280  0.939
       0.397 -0.027  0.317  0.824 -0.250
       0.120  0.971 -0.058 -0.062 -0.189
     occupation matrix ns (before diag.):
       0.062 -0.007  0.001 -0.032 -0.000
      -0.007  0.045  0.001  0.022 -0.000
       0.001  0.001  0.130 -0.002 -0.018
      -0.032  0.022 -0.002  0.106 -0.000
      -0.000 -0.000 -0.018 -0.000  0.044
     ------------------------ ATOM    6 ------------------------
     Tr[ns(  6)] (up, down, total) =   2.29853  0.38658  2.68510
     Atomic magnetic moment for atom   6 =   1.91195
     SPIN  1
     eigenvalues:
       0.246  0.268  0.455  0.608  0.722
     eigenvectors (columns):
       0.397  0.086 -0.829 -0.163  0.348
       0.249 -0.032  0.475 -0.026  0.843
      -0.057  0.992  0.090 -0.066  0.001
      -0.882 -0.034 -0.244 -0.086  0.394
      -0.009  0.077 -0.140  0.980  0.115
     occupation matrix ns (before diag.):
       0.457  0.059 -0.010  0.112 -0.014
       0.059  0.632  0.009  0.135  0.023
      -0.010  0.009  0.271 -0.003 -0.024
       0.112  0.135 -0.003  0.335 -0.002
      -0.014  0.023 -0.024 -0.002  0.604
     SPIN  2
     eigenvalues:
       0.037  0.040  0.047  0.129  0.134
     eigenvectors (columns):
       0.258 -0.017  0.862 -0.417 -0.125
       0.872  0.135 -0.391 -0.255 -0.063
       0.037 -0.195 -0.016  0.280 -0.939
       0.397  0.027  0.317  0.824  0.250
      -0.120  0.971  0.058  0.062 -0.189
     occupation matrix ns (before diag.):
       0.062  0.007  0.001 -0.032  0.000
       0.007  0.045 -0.001 -0.022 -0.000
       0.001 -0.001  0.130 -0.002  0.018
      -0.032 -0.022 -0.002  0.106  0.000
       0.000 -0.000  0.018  0.000  0.044

     Number of occupied Hubbard levels =   20.1847

     negative rho (up, down):  0.000E+00 1.824E-02

     HUBBARD ENERGY =    0.7291  (Ry)

     total cpu time spent up to now is     1331.4 secs

     total energy              =   -2474.78428395 Ry
     estimated scf accuracy    <      16.50583141 Ry

     total magnetization       =    11.91 Bohr mag/cell
     absolute magnetization    =    18.58 Bohr mag/cell
[tb_dev] Currently allocated     0.00E+00 Mbytes, locked:    0 /   0
[tb_pin] Currently allocated     0.00E+00 Mbytes, locked:    0 /   0

     iteration #  4     ecut=    50.00 Ry     beta= 0.70
     CG style diagonalization

---- Real-time Memory Report at c_bands before calling an iterative solver
         13654 MiB given to the printing process from OS
             0 MiB allocation reported by mallinfo(arena+hblkhd)
        445253 MiB available memory on the node where the printing process lives
     GPU memory used/free/total (MiB): 4716 / 60228 / 64944
------------------
     ethr =  4.48E-03,  avg # of iterations =  3.3

     =================== HUBBARD OCCUPATIONS ===================
     ------------------------ ATOM    1 ------------------------
     Tr[ns(  1)] (up, down, total) =   3.79934  0.56279  4.36214
     Atomic magnetic moment for atom   1 =   3.23655
     SPIN  1
     eigenvalues:
       0.384  0.456  0.972  0.992  0.996
     eigenvectors (columns):
       0.553  0.093  0.051 -0.516 -0.645
       0.345 -0.927  0.033  0.032  0.139
       0.075 -0.010 -0.997 -0.002 -0.014
       0.729  0.362  0.043  0.151  0.559
       0.195  0.027  0.020  0.842 -0.501
     occupation matrix ns (before diag.):
       0.803 -0.070 -0.024 -0.265 -0.066
      -0.070  0.459 -0.020  0.027 -0.028
      -0.024 -0.020  0.968 -0.030 -0.008
      -0.265  0.027 -0.030  0.600 -0.093
      -0.066 -0.028 -0.008 -0.093  0.969
     SPIN  2
     eigenvalues:
       0.051  0.064  0.089  0.152  0.207
     eigenvectors (columns):
      -0.610 -0.550 -0.001 -0.021  0.570
       0.062  0.126 -0.031 -0.978  0.151
      -0.034  0.108  0.991 -0.009  0.070
       0.322  0.461 -0.094  0.206  0.796
       0.721 -0.677  0.090 -0.026  0.118
     occupation matrix ns (before diag.):
       0.106  0.015  0.005  0.067  0.016
       0.015  0.151  0.002 -0.001  0.004
       0.005  0.002  0.090  0.006  0.004
       0.067 -0.001  0.006  0.157  0.010
       0.016  0.004  0.004  0.010  0.059
     ------------------------ ATOM    2 ------------------------
     Tr[ns(  2)] (up, down, total) =   3.74066  0.68482  4.42548
     Atomic magnetic moment for atom   2 =   3.05584
     SPIN  1
     eigenvalues:
       0.400  0.432  0.949  0.977  0.983
     eigenvectors (columns):
      -0.434  0.037  0.843  0.308  0.064
      -0.237  0.073 -0.431  0.742  0.451
      -0.157 -0.973 -0.061  0.089 -0.130
       0.855 -0.143  0.300  0.369  0.150
      -0.017 -0.162  0.100 -0.458  0.868
     occupation matrix ns (before diag.):
       0.848 -0.050 -0.018  0.210 -0.003
      -0.050  0.938  0.016  0.127  0.008
      -0.018  0.016  0.446  0.002 -0.088
       0.210  0.127  0.002  0.542 -0.004
      -0.003  0.008 -0.088 -0.004  0.967
     SPIN  2
     eigenvalues:
       0.079  0.085  0.092  0.211  0.218
     eigenvectors (columns):
       0.411  0.026  0.753  0.459  0.230
       0.759 -0.216 -0.567  0.222  0.081
       0.023  0.188 -0.061 -0.382  0.902
       0.474 -0.033  0.304 -0.766 -0.309
      -0.172 -0.957  0.126 -0.087  0.176
     occupation matrix ns (before diag.):
       0.122  0.010  0.005 -0.053  0.002
       0.010  0.091 -0.001 -0.028 -0.000
       0.005 -0.001  0.212 -0.001  0.025
      -0.053 -0.028 -0.001  0.171  0.002
       0.002 -0.000  0.025  0.002  0.090
     ------------------------ ATOM    3 ------------------------
     Tr[ns(  3)] (up, down, total) =   3.74066  0.68482  4.42548
     Atomic magnetic moment for atom   3 =   3.05584
     SPIN  1
     eigenvalues:
       0.400  0.432  0.949  0.977  0.983
     eigenvectors (columns):
      -0.434 -0.037  0.843  0.308 -0.064
       0.237  0.073  0.431 -0.742  0.451
      -0.157  0.973 -0.061  0.089  0.130
       0.855  0.143  0.300  0.369 -0.150
       0.017 -0.162 -0.100  0.458  0.868
     occupation matrix ns (before diag.):
       0.848  0.050 -0.018  0.210  0.003
       0.050  0.938 -0.016 -0.127  0.008
      -0.018 -0.016  0.446  0.002  0.088
       0.210 -0.127  0.002  0.542  0.004
       0.003  0.008  0.088  0.004  0.967
     SPIN  2
     eigenvalues:
       0.079  0.085  0.092  0.211  0.218
     eigenvectors (columns):
       0.411 -0.026  0.753  0.459 -0.230
      -0.759 -0.216  0.567 -0.222  0.081
       0.023 -0.188 -0.061 -0.382 -0.902
       0.474  0.033  0.304 -0.766  0.309
       0.172 -0.957 -0.126  0.087  0.176
     occupation matrix ns (before diag.):
       0.122 -0.010  0.005 -0.053 -0.002
      -0.010  0.091  0.001  0.028 -0.000
       0.005  0.001  0.212 -0.001 -0.025
      -0.053  0.028 -0.001  0.171 -0.002
      -0.002 -0.000 -0.025 -0.002  0.090
     ------------------------ ATOM    4 ------------------------
     Tr[ns(  4)] (up, down, total) =   3.79934  0.56279  4.36214
     Atomic magnetic moment for atom   4 =   3.23655
     SPIN  1
     eigenvalues:
       0.384  0.456  0.972  0.992  0.996
     eigenvectors (columns):
      -0.553  0.093  0.051  0.516 -0.645
       0.345  0.927 -0.033  0.032 -0.139
      -0.075 -0.010 -0.997  0.002 -0.014
      -0.729  0.362  0.043 -0.151  0.559
       0.195 -0.027 -0.020  0.842  0.501
     occupation matrix ns (before diag.):
       0.803  0.070 -0.024 -0.265  0.066
       0.070  0.459  0.020 -0.027 -0.028
      -0.024  0.020  0.968 -0.030  0.008
      -0.265 -0.027 -0.030  0.600  0.093
       0.066 -0.028  0.008  0.093  0.969
     SPIN  2
     eigenvalues:
       0.051  0.064  0.089  0.152  0.207
     eigenvectors (columns):
       0.610 -0.550 -0.001  0.021  0.570
       0.062 -0.126  0.031 -0.978 -0.151
       0.034  0.108  0.991  0.009  0.070
      -0.322  0.461 -0.094 -0.206  0.796
       0.721  0.677 -0.090 -0.026 -0.118
     occupation matrix ns (before diag.):
       0.106 -0.015  0.005  0.067 -0.016
      -0.015  0.151 -0.002  0.001  0.004
       0.005 -0.002  0.090  0.006 -0.004
       0.067  0.001  0.006  0.157 -0.010
      -0.016  0.004 -0.004 -0.010  0.059
     ------------------------ ATOM    5 ------------------------
     Tr[ns(  5)] (up, down, total) =   3.74066  0.68482  4.42548
     Atomic magnetic moment for atom   5 =   3.05584
     SPIN  1
     eigenvalues:
       0.400  0.432  0.949  0.977  0.983
     eigenvectors (columns):
      -0.434 -0.037  0.843  0.308 -0.064
       0.237  0.073  0.431 -0.742  0.451
      -0.157  0.973 -0.061  0.089  0.130
       0.855  0.143  0.300  0.369 -0.150
       0.017 -0.162 -0.100  0.458  0.868
     occupation matrix ns (before diag.):
       0.848  0.050 -0.018  0.210  0.003
       0.050  0.938 -0.016 -0.127  0.008
      -0.018 -0.016  0.446  0.002  0.088
       0.210 -0.127  0.002  0.542  0.004
       0.003  0.008  0.088  0.004  0.967
     SPIN  2
     eigenvalues:
       0.079  0.085  0.092  0.211  0.218
     eigenvectors (columns):
       0.411 -0.026  0.753  0.459 -0.230
      -0.759 -0.216  0.567 -0.222  0.081
       0.023 -0.188 -0.061 -0.382 -0.902
       0.474  0.033  0.304 -0.766  0.309
       0.172 -0.957 -0.126  0.087  0.176
     occupation matrix ns (before diag.):
       0.122 -0.010  0.005 -0.053 -0.002
      -0.010  0.091  0.001  0.028 -0.000
       0.005  0.001  0.212 -0.001 -0.025
      -0.053  0.028 -0.001  0.171 -0.002
      -0.002 -0.000 -0.025 -0.002  0.090
     ------------------------ ATOM    6 ------------------------
     Tr[ns(  6)] (up, down, total) =   3.74066  0.68482  4.42548
     Atomic magnetic moment for atom   6 =   3.05584
     SPIN  1
     eigenvalues:
       0.400  0.432  0.949  0.977  0.983
     eigenvectors (columns):
      -0.434  0.037  0.843  0.308  0.064
      -0.237  0.073 -0.431  0.742  0.451
      -0.157 -0.973 -0.061  0.089 -0.130
       0.855 -0.143  0.300  0.369  0.150
      -0.017 -0.162  0.100 -0.458  0.868
     occupation matrix ns (before diag.):
       0.848 -0.050 -0.018  0.210 -0.003
      -0.050  0.938  0.016  0.127  0.008
      -0.018  0.016  0.446  0.002 -0.088
       0.210  0.127  0.002  0.542 -0.004
      -0.003  0.008 -0.088 -0.004  0.967
     SPIN  2
     eigenvalues:
       0.079  0.085  0.092  0.211  0.218
     eigenvectors (columns):
       0.411  0.026  0.753  0.459  0.230
       0.759 -0.216 -0.567  0.222  0.081
       0.023  0.188 -0.061 -0.382  0.902
       0.474 -0.033  0.304 -0.766 -0.309
      -0.172 -0.957  0.126 -0.087  0.176
     occupation matrix ns (before diag.):
       0.122  0.010  0.005 -0.053  0.002
       0.010  0.091 -0.001 -0.028 -0.000
       0.005 -0.001  0.212 -0.001  0.025
      -0.053 -0.028 -0.001  0.171  0.002
       0.002 -0.000  0.025  0.002  0.090

     Number of occupied Hubbard levels =   26.4262

     negative rho (up, down):  0.000E+00 1.867E-02

     HUBBARD ENERGY =    0.7190  (Ry)

     total cpu time spent up to now is     1621.6 secs

     total energy              =   -2480.61774105 Ry
     estimated scf accuracy    <       4.68274475 Ry

     total magnetization       =    17.82 Bohr mag/cell
     absolute magnetization    =    21.54 Bohr mag/cell
[tb_dev] Currently allocated     0.00E+00 Mbytes, locked:    0 /   0
[tb_pin] Currently allocated     0.00E+00 Mbytes, locked:    0 /   0

     iteration #  5     ecut=    50.00 Ry     beta= 0.70
     CG style diagonalization

---- Real-time Memory Report at c_bands before calling an iterative solver
         13673 MiB given to the printing process from OS
             0 MiB allocation reported by mallinfo(arena+hblkhd)
        437294 MiB available memory on the node where the printing process lives
     GPU memory used/free/total (MiB): 4716 / 60228 / 64944
------------------
     c_bands:  1 eigenvalues not converged
     c_bands:  1 eigenvalues not converged
     c_bands:  1 eigenvalues not converged
     c_bands:  1 eigenvalues not converged
     ethr =  1.48E-03,  avg # of iterations =  3.4

     =================== HUBBARD OCCUPATIONS ===================
     ------------------------ ATOM    1 ------------------------
     Tr[ns(  1)] (up, down, total) =   3.26569  0.51332  3.77900
     Atomic magnetic moment for atom   1 =   2.75237
     SPIN  1
     eigenvalues:
       0.322  0.356  0.770  0.805  1.012
     eigenvectors (columns):
      -0.568 -0.015 -0.340  0.618 -0.423
      -0.219  0.962  0.126 -0.100  0.012
      -0.075  0.040 -0.852 -0.516  0.030
      -0.764 -0.269  0.343 -0.470  0.073
      -0.199  0.001 -0.161  0.347  0.902
     occupation matrix ns (before diag.):
       0.682 -0.053 -0.033 -0.214 -0.136
      -0.053  0.366 -0.021  0.034 -0.019
      -0.033 -0.021  0.777 -0.012 -0.006
      -0.214  0.034 -0.012  0.488 -0.058
      -0.136 -0.019 -0.006 -0.058  0.954
     SPIN  2
     eigenvalues:
       0.044  0.056  0.066  0.154  0.194
     eigenvectors (columns):
      -0.392 -0.711  0.103  0.023  0.574
       0.021  0.132 -0.056 -0.963  0.226
      -0.058  0.224  0.971 -0.012  0.064
       0.140  0.533 -0.162  0.267  0.774
       0.907 -0.378  0.133 -0.010  0.128
     occupation matrix ns (before diag.):
       0.100  0.016  0.006  0.063  0.015
       0.016  0.154  0.003 -0.001  0.005
       0.006  0.003  0.066  0.005  0.003
       0.063 -0.001  0.005  0.146  0.012
       0.015  0.005  0.003  0.012  0.048
     ------------------------ ATOM    2 ------------------------
     Tr[ns(  2)] (up, down, total) =   2.87630  0.44650  3.32280
     Atomic magnetic moment for atom   2 =   2.42980
     SPIN  1
     eigenvalues:
       0.261  0.265  0.641  0.754  0.955
     eigenvectors (columns):
       0.417  0.100  0.635 -0.025  0.642
       0.253  0.012 -0.763  0.071  0.591
      -0.170  0.976 -0.033  0.129 -0.004
      -0.856 -0.146  0.092  0.013  0.487
      -0.026  0.124 -0.074 -0.989  0.032
     occupation matrix ns (before diag.):
       0.701  0.079 -0.011  0.239  0.009
       0.079  0.727  0.012  0.174 -0.000
      -0.011  0.012  0.273 -0.002 -0.062
       0.239  0.174 -0.002  0.429  0.002
       0.009 -0.000 -0.062  0.002  0.746
     SPIN  2
     eigenvalues:
       0.039  0.052  0.053  0.149  0.154
     eigenvectors (columns):
       0.686  0.413 -0.427  0.197 -0.372
       0.552 -0.571  0.562  0.125 -0.195
       0.009 -0.136 -0.115 -0.869 -0.462
       0.474  0.045 -0.059 -0.408  0.777
       0.016  0.695  0.697 -0.158 -0.081
     occupation matrix ns (before diag.):
       0.064  0.005  0.001 -0.042 -0.001
       0.005  0.054 -0.001 -0.024  0.000
       0.001 -0.001  0.147 -0.002  0.017
      -0.042 -0.024 -0.002  0.127 -0.000
      -0.001  0.000  0.017 -0.000  0.055
     ------------------------ ATOM    3 ------------------------
     Tr[ns(  3)] (up, down, total) =   2.87630  0.44650  3.32280
     Atomic magnetic moment for atom   3 =   2.42980
     SPIN  1
     eigenvalues:
       0.261  0.265  0.641  0.754  0.955
     eigenvectors (columns):
       0.417 -0.100  0.635 -0.025 -0.642
      -0.253  0.012  0.763 -0.071  0.591
      -0.170 -0.976 -0.033  0.129  0.004
      -0.856  0.146  0.092  0.013 -0.487
       0.026  0.124  0.074  0.989  0.032
     occupation matrix ns (before diag.):
       0.701 -0.079 -0.011  0.239 -0.009
      -0.079  0.727 -0.012 -0.174 -0.000
      -0.011 -0.012  0.273 -0.002  0.062
       0.239 -0.174 -0.002  0.429 -0.002
      -0.009 -0.000  0.062 -0.002  0.746
     SPIN  2
     eigenvalues:
       0.039  0.052  0.053  0.149  0.154
     eigenvectors (columns):
       0.686 -0.413 -0.427 -0.197 -0.372
      -0.552 -0.571 -0.562  0.125  0.195
       0.009  0.136 -0.115  0.869 -0.462
       0.474 -0.045 -0.059  0.408  0.777
      -0.016  0.695 -0.697 -0.158  0.081
     occupation matrix ns (before diag.):
       0.064 -0.005  0.001 -0.042  0.001
      -0.005  0.054  0.001  0.024  0.000
       0.001  0.001  0.147 -0.002 -0.017
      -0.042  0.024 -0.002  0.127  0.000
       0.001  0.000 -0.017  0.000  0.055
     ------------------------ ATOM    4 ------------------------
     Tr[ns(  4)] (up, down, total) =   3.26569  0.51332  3.77900
     Atomic magnetic moment for atom   4 =   2.75237
     SPIN  1
     eigenvalues:
       0.322  0.356  0.770  0.805  1.012
     eigenvectors (columns):
       0.568 -0.015 -0.340  0.618  0.423
      -0.219 -0.962 -0.126  0.100  0.012
       0.075  0.040 -0.852 -0.516 -0.030
       0.764 -0.269  0.343 -0.470 -0.073
      -0.199 -0.001  0.161 -0.347  0.902
     occupation matrix ns (before diag.):
       0.682  0.053 -0.033 -0.214  0.136
       0.053  0.366  0.021 -0.034 -0.019
      -0.033  0.021  0.777 -0.012  0.006
      -0.214 -0.034 -0.012  0.488  0.058
       0.136 -0.019  0.006  0.058  0.954
     SPIN  2
     eigenvalues:
       0.044  0.056  0.066  0.154  0.194
     eigenvectors (columns):
       0.392 -0.711  0.103  0.023 -0.574
       0.021 -0.132  0.056  0.963  0.226
       0.058  0.224  0.971 -0.012 -0.064
      -0.140  0.533 -0.162  0.267 -0.774
       0.907  0.378 -0.133  0.010  0.128
     occupation matrix ns (before diag.):
       0.100 -0.016  0.006  0.063 -0.015
      -0.016  0.154 -0.003  0.001  0.005
       0.006 -0.003  0.066  0.005 -0.003
       0.063  0.001  0.005  0.146 -0.012
      -0.015  0.005 -0.003 -0.012  0.048
     ------------------------ ATOM    5 ------------------------
     Tr[ns(  5)] (up, down, total) =   2.87630  0.44650  3.32280
     Atomic magnetic moment for atom   5 =   2.42980
     SPIN  1
     eigenvalues:
       0.261  0.265  0.641  0.754  0.955
     eigenvectors (columns):
       0.417 -0.100  0.635 -0.025 -0.642
      -0.253  0.012  0.763 -0.071  0.591
      -0.170 -0.976 -0.033  0.129  0.004
      -0.856  0.146  0.092  0.013 -0.487
       0.026  0.124  0.074  0.989  0.032
     occupation matrix ns (before diag.):
       0.701 -0.079 -0.011  0.239 -0.009
      -0.079  0.727 -0.012 -0.174 -0.000
      -0.011 -0.012  0.273 -0.002  0.062
       0.239 -0.174 -0.002  0.429 -0.002
      -0.009 -0.000  0.062 -0.002  0.746
     SPIN  2
     eigenvalues:
       0.039  0.052  0.053  0.149  0.154
     eigenvectors (columns):
       0.686 -0.413 -0.427 -0.197 -0.372
      -0.552 -0.571 -0.562  0.125  0.195
       0.009  0.136 -0.115  0.869 -0.462
       0.474 -0.045 -0.059  0.408  0.777
      -0.016  0.695 -0.697 -0.158  0.081
     occupation matrix ns (before diag.):
       0.064 -0.005  0.001 -0.042  0.001
      -0.005  0.054  0.001  0.024  0.000
       0.001  0.001  0.147 -0.002 -0.017
      -0.042  0.024 -0.002  0.127  0.000
       0.001  0.000 -0.017  0.000  0.055
     ------------------------ ATOM    6 ------------------------
     Tr[ns(  6)] (up, down, total) =   2.87630  0.44650  3.32280
     Atomic magnetic moment for atom   6 =   2.42980
     SPIN  1
     eigenvalues:
       0.261  0.265  0.641  0.754  0.955
     eigenvectors (columns):
       0.417  0.100  0.635 -0.025  0.642
       0.253  0.012 -0.763  0.071  0.591
      -0.170  0.976 -0.033  0.129 -0.004
      -0.856 -0.146  0.092  0.013  0.487
      -0.026  0.124 -0.074 -0.989  0.032
     occupation matrix ns (before diag.):
       0.701  0.079 -0.011  0.239  0.009
       0.079  0.727  0.012  0.174 -0.000
      -0.011  0.012  0.273 -0.002 -0.062
       0.239  0.174 -0.002  0.429  0.002
       0.009 -0.000 -0.062  0.002  0.746
     SPIN  2
     eigenvalues:
       0.039  0.052  0.053  0.149  0.154
[...]
      -0.001 -0.000 -0.026 -0.000  0.071
     ------------------------ ATOM    6 ------------------------
     Tr[ns(  6)] (up, down, total) =   3.43657  0.58574  4.02232
     Atomic magnetic moment for atom   6 =   2.85083
     SPIN  1
     eigenvalues:
       0.305  0.327  0.860  0.958  0.987
     eigenvectors (columns):
      -0.424  0.060  0.800  0.097 -0.410
      -0.241 -0.029 -0.545  0.084 -0.798
       0.021  0.984 -0.070  0.162  0.023
       0.873 -0.005  0.239  0.082 -0.418
       0.014  0.167  0.041 -0.975 -0.140
     occupation matrix ns (before diag.):
       0.780 -0.013 -0.026  0.228 -0.004
      -0.013  0.909  0.017  0.160  0.011
      -0.026  0.017  0.346 -0.007 -0.103
       0.228  0.160 -0.007  0.460 -0.007
      -0.004  0.011 -0.103 -0.007  0.941
     SPIN  2
     eigenvalues:
       0.055  0.066  0.071  0.193  0.201
     eigenvectors (columns):
       0.523 -0.112 -0.714 -0.442 -0.102
       0.704  0.202  0.637 -0.237 -0.046
       0.024 -0.189  0.047  0.221 -0.955
       0.474 -0.003 -0.198  0.836  0.196
      -0.082  0.954 -0.210  0.044 -0.191
     occupation matrix ns (before diag.):
       0.092  0.007  0.000 -0.051  0.001
       0.007  0.070 -0.001 -0.031 -0.000
       0.000 -0.001  0.196 -0.002  0.026
      -0.051 -0.031 -0.002  0.157  0.000
       0.001 -0.000  0.026  0.000  0.071

     Number of occupied Hubbard levels =   24.1769

     negative rho (up, down):  0.000E+00 2.346E-02

     HUBBARD ENERGY =    0.7270  (Ry)

     total cpu time spent up to now is    45938.2 secs

     total energy              =   -2482.75663033 Ry
     estimated scf accuracy    <       0.00130746 Ry

     total magnetization       =    17.11 Bohr mag/cell
     absolute magnetization    =    20.56 Bohr mag/cell
[tb_dev] Currently allocated     0.00E+00 Mbytes, locked:    0 /   0
[tb_pin] Currently allocated     0.00E+00 Mbytes, locked:    0 /   0

     iteration #132     ecut=    50.00 Ry     beta= 0.70
     CG style diagonalization

---- Real-time Memory Report at c_bands before calling an iterative solver
         13775 MiB given to the printing process from OS
             0 MiB allocation reported by mallinfo(arena+hblkhd)
        473315 MiB available memory on the node where the printing process lives
     GPU memory used/free/total (MiB): 4716 / 60228 / 64944
------------------
     ethr =  4.28E-08,  avg # of iterations =  4.8

     =================== HUBBARD OCCUPATIONS ===================
     ------------------------ ATOM    1 ------------------------
     Tr[ns(  1)] (up, down, total) =   3.47102  0.58033  4.05135
     Atomic magnetic moment for atom   1 =   2.89070
     SPIN  1
     eigenvalues:
       0.287  0.333  0.875  0.981  0.995
     eigenvectors (columns):
      -0.053 -0.554  0.068 -0.575 -0.596
      -0.983 -0.096 -0.091  0.111  0.059
      -0.053 -0.106  0.962  0.246 -0.024
       0.166 -0.798 -0.199  0.494  0.227
      -0.017 -0.190  0.150 -0.594  0.767
     occupation matrix ns (before diag.):
       0.785 -0.071 -0.047 -0.281 -0.076
      -0.071  0.303 -0.033  0.062 -0.021
      -0.047 -0.033  0.874 -0.028 -0.029
      -0.281  0.062 -0.028  0.546 -0.091
      -0.076 -0.021 -0.029 -0.091  0.963
     SPIN  2
     eigenvalues:
       0.047  0.061  0.074  0.179  0.219
     eigenvectors (columns):
      -0.369 -0.714  0.106 -0.002  0.586
       0.015  0.132 -0.061 -0.973  0.178
      -0.037  0.212  0.975 -0.022  0.058
       0.138  0.545 -0.154  0.228  0.780
       0.918 -0.363  0.106 -0.020  0.117
     occupation matrix ns (before diag.):
       0.114  0.017  0.006  0.073  0.016
       0.017  0.178  0.003 -0.004  0.005
       0.006  0.003  0.073  0.005  0.003
       0.073 -0.004  0.005  0.163  0.012
       0.016  0.005  0.003  0.012  0.052
     ------------------------ ATOM    2 ------------------------
     Tr[ns(  2)] (up, down, total) =   3.44257  0.59112  4.03369
     Atomic magnetic moment for atom   2 =   2.85145
     SPIN  1
     eigenvalues:
       0.308  0.331  0.856  0.960  0.988
     eigenvectors (columns):
       0.421 -0.072  0.804  0.078  0.406
       0.241  0.033 -0.536  0.080  0.804
      -0.024 -0.982 -0.081  0.167 -0.022
      -0.874  0.005  0.241  0.075  0.415
      -0.018 -0.171  0.025 -0.977  0.126
     occupation matrix ns (before diag.):
       0.778 -0.011 -0.032  0.225 -0.003
      -0.011  0.910  0.019  0.160  0.011
      -0.032  0.019  0.352 -0.009 -0.106
       0.225  0.160 -0.009  0.461 -0.009
      -0.003  0.011 -0.106 -0.009  0.941
     SPIN  2
     eigenvalues:
       0.055  0.067  0.073  0.194  0.202
     eigenvectors (columns):
       0.520 -0.087 -0.719 -0.441 -0.103
       0.708  0.167  0.643 -0.236 -0.048
       0.022 -0.191  0.038  0.226 -0.954
       0.473  0.002 -0.199  0.835  0.200
      -0.072  0.963 -0.168  0.044 -0.190
     occupation matrix ns (before diag.):
       0.093  0.007  0.000 -0.052  0.001
       0.007  0.071 -0.001 -0.031 -0.000
       0.000 -0.001  0.197 -0.002  0.026
      -0.052 -0.031 -0.002  0.158  0.000
       0.001 -0.000  0.026  0.000  0.072
     ------------------------ ATOM    3 ------------------------
     Tr[ns(  3)] (up, down, total) =   3.44257  0.59112  4.03369
     Atomic magnetic moment for atom   3 =   2.85145
     SPIN  1
     eigenvalues:
       0.308  0.331  0.856  0.960  0.988
     eigenvectors (columns):
       0.421  0.072  0.804  0.078 -0.406
      -0.241  0.033  0.536 -0.080  0.804
      -0.024  0.982 -0.081  0.167  0.022
      -0.874 -0.005  0.241  0.075 -0.415
       0.018 -0.171 -0.025  0.977  0.126
     occupation matrix ns (before diag.):
       0.778  0.011 -0.032  0.225  0.003
       0.011  0.910 -0.019 -0.160  0.011
      -0.032 -0.019  0.352 -0.009  0.106
       0.225 -0.160 -0.009  0.461  0.009
       0.003  0.011  0.106  0.009  0.941
     SPIN  2
     eigenvalues:
       0.055  0.067  0.073  0.194  0.202
     eigenvectors (columns):
       0.520  0.087 -0.719 -0.441  0.103
      -0.708  0.167 -0.643  0.236 -0.048
       0.022  0.191  0.038  0.226  0.954
       0.473 -0.002 -0.199  0.835 -0.200
       0.072  0.963  0.168 -0.044 -0.190
     occupation matrix ns (before diag.):
       0.093 -0.007  0.000 -0.052 -0.001
      -0.007  0.071  0.001  0.031 -0.000
       0.000  0.001  0.197 -0.002 -0.026
      -0.052  0.031 -0.002  0.158 -0.000
      -0.001 -0.000 -0.026 -0.000  0.072
     ------------------------ ATOM    4 ------------------------
     Tr[ns(  4)] (up, down, total) =   3.47102  0.58033  4.05135
     Atomic magnetic moment for atom   4 =   2.89070
     SPIN  1
     eigenvalues:
       0.287  0.333  0.875  0.981  0.995
     eigenvectors (columns):
      -0.053  0.554 -0.068 -0.575 -0.596
       0.983 -0.096 -0.091 -0.111 -0.059
      -0.053  0.106 -0.962  0.246 -0.024
       0.166  0.798  0.199  0.494  0.227
       0.017 -0.190  0.150  0.594 -0.767
     occupation matrix ns (before diag.):
       0.785  0.071 -0.047 -0.281  0.076
       0.071  0.303  0.033 -0.062 -0.021
      -0.047  0.033  0.874 -0.028  0.029
      -0.281 -0.062 -0.028  0.546  0.091
       0.076 -0.021  0.029  0.091  0.963
     SPIN  2
     eigenvalues:
       0.047  0.061  0.074  0.179  0.219
     eigenvectors (columns):
       0.369 -0.714  0.106 -0.002 -0.586
       0.015 -0.132  0.061  0.973  0.178
       0.037  0.212  0.975 -0.022 -0.058
      -0.138  0.545 -0.154  0.228 -0.780
       0.918  0.363 -0.106  0.020  0.117
     occupation matrix ns (before diag.):
       0.114 -0.017  0.006  0.073 -0.016
      -0.017  0.178 -0.003  0.004  0.005
       0.006 -0.003  0.073  0.005 -0.003
       0.073  0.004  0.005  0.163 -0.012
      -0.016  0.005 -0.003 -0.012  0.052
     ------------------------ ATOM    5 ------------------------
     Tr[ns(  5)] (up, down, total) =   3.44257  0.59112  4.03369
     Atomic magnetic moment for atom   5 =   2.85145
     SPIN  1
     eigenvalues:
       0.308  0.331  0.856  0.960  0.988
     eigenvectors (columns):
       0.421  0.072  0.804  0.078 -0.406
      -0.241  0.033  0.536 -0.080  0.804
      -0.024  0.982 -0.081  0.167  0.022
      -0.874 -0.005  0.241  0.075 -0.415
       0.018 -0.171 -0.025  0.977  0.126
     occupation matrix ns (before diag.):
       0.778  0.011 -0.032  0.225  0.003
       0.011  0.910 -0.019 -0.160  0.011
      -0.032 -0.019  0.352 -0.009  0.106
       0.225 -0.160 -0.009  0.461  0.009
       0.003  0.011  0.106  0.009  0.941
     SPIN  2
     eigenvalues:
       0.055  0.067  0.073  0.194  0.202
     eigenvectors (columns):
       0.520  0.087 -0.719 -0.441  0.103
      -0.708  0.167 -0.643  0.236 -0.048
       0.022  0.191  0.038  0.226  0.954
       0.473 -0.002 -0.199  0.835 -0.200
       0.072  0.963  0.168 -0.044 -0.190
     occupation matrix ns (before diag.):
       0.093 -0.007  0.000 -0.052 -0.001
      -0.007  0.071  0.001  0.031 -0.000
       0.000  0.001  0.197 -0.002 -0.026
      -0.052  0.031 -0.002  0.158 -0.000
      -0.001 -0.000 -0.026 -0.000  0.072
     ------------------------ ATOM    6 ------------------------
     Tr[ns(  6)] (up, down, total) =   3.44257  0.59112  4.03369
     Atomic magnetic moment for atom   6 =   2.85145
     SPIN  1
     eigenvalues:
       0.308  0.331  0.856  0.960  0.988
     eigenvectors (columns):
       0.421 -0.072  0.804  0.078  0.406
       0.241  0.033 -0.536  0.080  0.804
      -0.024 -0.982 -0.081  0.167 -0.022
      -0.874  0.005  0.241  0.075  0.415
      -0.018 -0.171  0.025 -0.977  0.126
     occupation matrix ns (before diag.):
       0.778 -0.011 -0.032  0.225 -0.003
      -0.011  0.910  0.019  0.160  0.011
      -0.032  0.019  0.352 -0.009 -0.106
       0.225  0.160 -0.009  0.461 -0.009
      -0.003  0.011 -0.106 -0.009  0.941
     SPIN  2
     eigenvalues:
       0.055  0.067  0.073  0.194  0.202
     eigenvectors (columns):
       0.520 -0.087 -0.719 -0.441 -0.103
       0.708  0.167  0.643 -0.236 -0.048
       0.022 -0.191  0.038  0.226 -0.954
       0.473  0.002 -0.199  0.835  0.200
      -0.072  0.963 -0.168  0.044 -0.190
     occupation matrix ns (before diag.):
       0.093  0.007  0.000 -0.052  0.001
       0.007  0.071 -0.001 -0.031 -0.000
       0.000 -0.001  0.197 -0.002  0.026
      -0.052 -0.031 -0.002  0.158  0.000
       0.001 -0.000  0.026  0.000  0.072

     Number of occupied Hubbard levels =   24.2375

     negative rho (up, down):  0.000E+00 2.324E-02

     HUBBARD ENERGY =    0.7453  (Ry)

     total cpu time spent up to now is    46409.3 secs

     total energy              =   -2482.75306626 Ry
     estimated scf accuracy    <       0.00794267 Ry

     total magnetization       =    16.25 Bohr mag/cell
     absolute magnetization    =    20.60 Bohr mag/cell
[tb_dev] Currently allocated     0.00E+00 Mbytes, locked:    0 /   0
[tb_pin] Currently allocated     0.00E+00 Mbytes, locked:    0 /   0

     iteration #133     ecut=    50.00 Ry     beta= 0.70
     CG style diagonalization

---- Real-time Memory Report at c_bands before calling an iterative solver
         13775 MiB given to the printing process from OS
             0 MiB allocation reported by mallinfo(arena+hblkhd)
        473314 MiB available memory on the node where the printing process lives
     GPU memory used/free/total (MiB): 4716 / 60228 / 64944
------------------
     c_bands:  1 eigenvalues not converged
     c_bands:  1 eigenvalues not converged
     c_bands:  1 eigenvalues not converged
     c_bands:  1 eigenvalues not converged
     c_bands:  1 eigenvalues not converged
     c_bands:  1 eigenvalues not converged
     c_bands:  1 eigenvalues not converged
     c_bands:  1 eigenvalues not converged
     ethr =  4.28E-08,  avg # of iterations =  6.5

     =================== HUBBARD OCCUPATIONS ===================
     ------------------------ ATOM    1 ------------------------
     Tr[ns(  1)] (up, down, total) =   3.50694  0.58045  4.08739
     Atomic magnetic moment for atom   1 =   2.92649
     SPIN  1
     eigenvalues:
       0.287  0.334  0.903  0.988  0.995
     eigenvectors (columns):
      -0.055  0.553  0.057  0.447  0.699
      -0.984  0.089 -0.094 -0.095 -0.080
      -0.055  0.114  0.958 -0.258 -0.008
       0.161  0.798 -0.206 -0.439 -0.321
      -0.017  0.193  0.167  0.730 -0.634
     occupation matrix ns (before diag.):
       0.789 -0.070 -0.048 -0.283 -0.074
      -0.070  0.304 -0.037  0.063 -0.021
      -0.048 -0.037  0.900 -0.036 -0.029
      -0.283  0.063 -0.036  0.551 -0.094
      -0.074 -0.021 -0.029 -0.094  0.964
     SPIN  2
     eigenvalues:
       0.047  0.061  0.074  0.179  0.219
     eigenvectors (columns):
      -0.364 -0.717  0.094 -0.000  0.587
       0.014  0.133 -0.060 -0.973  0.180
      -0.029  0.195  0.978 -0.023  0.063
       0.134  0.549 -0.150  0.230  0.778
       0.921 -0.359  0.091 -0.019  0.119
     occupation matrix ns (before diag.):
       0.114  0.017  0.007  0.073  0.016
       0.017  0.178  0.004 -0.004  0.005
       0.007  0.004  0.074  0.005  0.003
       0.073 -0.004  0.005  0.163  0.012
       0.016  0.005  0.003  0.012  0.052
     ------------------------ ATOM    2 ------------------------
     Tr[ns(  2)] (up, down, total) =   3.50566  0.60681  4.11247
     Atomic magnetic moment for atom   2 =   2.89885
     SPIN  1
     eigenvalues:
       0.317  0.344  0.883  0.970  0.992
     eigenvectors (columns):
      -0.414 -0.107 -0.806  0.022  0.408
      -0.241  0.035  0.530  0.115  0.804
       0.055 -0.976  0.092  0.187 -0.028
       0.875  0.027 -0.243  0.067  0.411
       0.033 -0.184  0.046 -0.973  0.128
     occupation matrix ns (before diag.):
       0.798 -0.018 -0.044  0.225  0.001
      -0.018  0.921  0.026  0.155  0.009
      -0.044  0.026  0.371 -0.013 -0.114
       0.225  0.155 -0.013  0.468 -0.014
       0.001  0.009 -0.114 -0.014  0.948
     SPIN  2
     eigenvalues:
       0.057  0.070  0.077  0.198  0.206
     eigenvectors (columns):
       0.520 -0.022  0.724 -0.434  0.127
       0.710  0.082 -0.657 -0.234  0.056
       0.017 -0.192 -0.021  0.269  0.943
       0.473  0.013  0.197  0.825 -0.237
      -0.051  0.978  0.065  0.052  0.187
     occupation matrix ns (before diag.):
       0.096  0.006  0.001 -0.052  0.001
       0.006  0.074 -0.001 -0.032  0.000
       0.001 -0.001  0.200 -0.002  0.026
      -0.052 -0.032 -0.002  0.162 -0.000
       0.001  0.000  0.026 -0.000  0.075
     ------------------------ ATOM    3 ------------------------
     Tr[ns(  3)] (up, down, total) =   3.50566  0.60681  4.11247
     Atomic magnetic moment for atom   3 =   2.89885
     SPIN  1
     eigenvalues:
       0.317  0.344  0.883  0.970  0.992
     eigenvectors (columns):
      -0.414  0.107 -0.806 -0.022  0.408
       0.241  0.035 -0.530  0.115 -0.804
       0.055  0.976  0.092 -0.187 -0.028
       0.875 -0.027 -0.243 -0.067  0.411
      -0.033 -0.184 -0.046 -0.973 -0.128
     occupation matrix ns (before diag.):
       0.798  0.018 -0.044  0.225 -0.001
       0.018  0.921 -0.026 -0.155  0.009
      -0.044 -0.026  0.371 -0.013  0.114
       0.225 -0.155 -0.013  0.468  0.014
      -0.001  0.009  0.114  0.014  0.948
     SPIN  2
     eigenvalues:
       0.057  0.070  0.077  0.198  0.206
     eigenvectors (columns):
       0.520  0.022  0.724 -0.434 -0.127
      -0.710  0.082  0.657  0.234  0.056
       0.017  0.192 -0.021  0.269 -0.943
       0.473 -0.013  0.197  0.825  0.237
       0.051  0.978 -0.065 -0.052  0.187
     occupation matrix ns (before diag.):
       0.096 -0.006  0.001 -0.052 -0.001
      -0.006  0.074  0.001  0.032  0.000
       0.001  0.001  0.200 -0.002 -0.026
      -0.052  0.032 -0.002  0.162  0.000
      -0.001  0.000 -0.026  0.000  0.075
     ------------------------ ATOM    4 ------------------------
     Tr[ns(  4)] (up, down, total) =   3.50694  0.58045  4.08739
     Atomic magnetic moment for atom   4 =   2.92649
     SPIN  1
     eigenvalues:
       0.287  0.334  0.903  0.988  0.995
     eigenvectors (columns):
      -0.055 -0.553  0.057  0.447 -0.699
       0.984  0.089  0.094  0.095 -0.080
      -0.055 -0.114  0.958 -0.258  0.008
       0.161 -0.798 -0.206 -0.439  0.321
       0.017  0.193 -0.167 -0.730 -0.634
     occupation matrix ns (before diag.):
       0.789  0.070 -0.048 -0.283  0.074
       0.070  0.304  0.037 -0.063 -0.021
      -0.048  0.037  0.900 -0.036  0.029
      -0.283 -0.063 -0.036  0.551  0.094
       0.074 -0.021  0.029  0.094  0.964
     SPIN  2
     eigenvalues:
       0.047  0.061  0.074  0.179  0.219
     eigenvectors (columns):
       0.364 -0.717  0.094 -0.000 -0.587
       0.014 -0.133  0.060  0.973  0.180
       0.029  0.195  0.978 -0.023 -0.063
      -0.134  0.549 -0.150  0.230 -0.778
       0.921  0.359 -0.091  0.019  0.119
     occupation matrix ns (before diag.):
       0.114 -0.017  0.007  0.073 -0.016
      -0.017  0.178 -0.004  0.004  0.005
       0.007 -0.004  0.074  0.005 -0.003
       0.073  0.004  0.005  0.163 -0.012
      -0.016  0.005 -0.003 -0.012  0.052
     ------------------------ ATOM    5 ------------------------
     Tr[ns(  5)] (up, down, total) =   3.50566  0.60681  4.11247
     Atomic magnetic moment for atom   5 =   2.89885
     SPIN  1
     eigenvalues:
       0.317  0.344  0.883  0.970  0.992
     eigenvectors (columns):
      -0.414  0.107 -0.806 -0.022  0.408
       0.241  0.035 -0.530  0.115 -0.804
       0.055  0.976  0.092 -0.187 -0.028
       0.875 -0.027 -0.243 -0.067  0.411
      -0.033 -0.184 -0.046 -0.973 -0.128
     occupation matrix ns (before diag.):
       0.798  0.018 -0.044  0.225 -0.001
       0.018  0.921 -0.026 -0.155  0.009
      -0.044 -0.026  0.371 -0.013  0.114
       0.225 -0.155 -0.013  0.468  0.014
      -0.001  0.009  0.114  0.014  0.948
     SPIN  2
     eigenvalues:
       0.057  0.070  0.077  0.198  0.206
     eigenvectors (columns):
       0.520  0.022  0.724 -0.434 -0.127
      -0.710  0.082  0.657  0.234  0.056
       0.017  0.192 -0.021  0.269 -0.943
       0.473 -0.013  0.197  0.825  0.237
       0.051  0.978 -0.065 -0.052  0.187
     occupation matrix ns (before diag.):
       0.096 -0.006  0.001 -0.052 -0.001
      -0.006  0.074  0.001  0.032  0.000
       0.001  0.001  0.200 -0.002 -0.026
      -0.052  0.032 -0.002  0.162  0.000
      -0.001  0.000 -0.026  0.000  0.075
     ------------------------ ATOM    6 ------------------------
     Tr[ns(  6)] (up, down, total) =   3.50566  0.60681  4.11247
     Atomic magnetic moment for atom   6 =   2.89885
     SPIN  1
     eigenvalues:
       0.317  0.344  0.883  0.970  0.992
     eigenvectors (columns):
      -0.414 -0.107 -0.806  0.022  0.408
      -0.241  0.035  0.530  0.115  0.804
       0.055 -0.976  0.092  0.187 -0.028
       0.875  0.027 -0.243  0.067  0.411
       0.033 -0.184  0.046 -0.973  0.128
     occupation matrix ns (before diag.):
       0.798 -0.018 -0.044  0.225  0.001
      -0.018  0.921  0.026  0.155  0.009
      -0.044  0.026  0.371 -0.013 -0.114
       0.225  0.155 -0.013  0.468 -0.014
       0.001  0.009 -0.114 -0.014  0.948
     SPIN  2
     eigenvalues:
       0.057  0.070  0.077  0.198  0.206
     eigenvectors (columns):
       0.520 -0.022  0.724 -0.434  0.127
       0.710  0.082 -0.657 -0.234  0.056
       0.017 -0.192 -0.021  0.269  0.943
       0.473  0.013  0.197  0.825 -0.237
      -0.051  0.978  0.065  0.052  0.187
     occupation matrix ns (before diag.):
       0.096  0.006  0.001 -0.052  0.001
       0.006  0.074 -0.001 -0.032  0.000
       0.001 -0.001  0.200 -0.002  0.026
      -0.052 -0.032 -0.002  0.162 -0.000
       0.001  0.000  0.026 -0.000  0.075

     Number of occupied Hubbard levels =   24.6247

     negative rho (up, down):  0.000E+00 2.363E-02

     HUBBARD ENERGY =    0.7102  (Ry)

     total cpu time spent up to now is    47087.5 secs

     total energy              =   -2482.64827943 Ry
     estimated scf accuracy    <       0.15568961 Ry

     total magnetization       =    14.39 Bohr mag/cell
     absolute magnetization    =    22.08 Bohr mag/cell
[tb_dev] Currently allocated     0.00E+00 Mbytes, locked:    0 /   0
[tb_pin] Currently allocated     0.00E+00 Mbytes, locked:    0 /   0

     iteration #134     ecut=    50.00 Ry     beta= 0.70
