
     Program PWSCF v.7.4.1 starts on  6Nov2025 at 21:51:15 

     This program is part of the open-source Quantum ESPRESSO suite
     for quantum simulation of materials; please cite
         "P. Giannozzi et al., J. Phys.:Condens. Matter 21 395502 (2009);
         "P. Giannozzi et al., J. Phys.:Condens. Matter 29 465901 (2017);
         "P. Giannozzi et al., J. Chem. Phys. 152 154105 (2020);
          URL http://www.quantum-espresso.org", 
     in publications or presentations arising from this work. More details at
     http://www.quantum-espresso.org/quote

     Parallel version (MPI & OpenMP), running on       1 processor cores
     Number of MPI processes:                 1
     Threads/MPI process:                     1

     MPI processes distributed on     1 nodes
     422619 MiB available memory on the printing compute node when the environment starts
 
     Reading input from pwscf.in
Warning: card &CELL ignored
Warning: card / ignored
Warning: card &FCP ignored
Warning: card / ignored
Warning: card &RISM ignored
Warning: card / ignored

     Current dimensions of program PWSCF are:
     Max number of different atomic species (ntypx) = 10
     Max number of k-points (npk) =  40000
     Max angular momentum in pseudopotentials (lmaxx) =  4
     file O.pbesol-n-kjpaw_psl.0.1.UPF: wavefunction(s)  2P renormalized
     Message from routine setup:
     using ibrav=0 with symmetry is DISCOURAGED, use correct ibrav instead
 
     Subspace diagonalization in iterative solution of the eigenvalue problem:
     a serial algorithm will be used

 
     G-vector sticks info
     --------------------
     sticks:   dense  smooth     PW     G-vecs:    dense   smooth      PW
     Sum        4185    2095    585               293897   103925   15339
 
     Using Slab Decomposition
 


     bravais-lattice index     =            0
     lattice parameter (alat)  =      10.0419  a.u.
     unit-cell volume          =    2174.9414 (a.u.)^3
     number of atoms/cell      =           28
     number of atomic types    =            4
     number of electrons       =       208.00
     number of Kohn-Sham states=          125
     kinetic-energy cutoff     =      50.0000  Ry
     charge density cutoff     =     400.0000  Ry
     scf convergence threshold =      5.6E-06
     mixing beta               =       0.4000
     number of iterations used =            8  plain     mixing
     Exchange-correlation= PBESOL
                           (   1   4  10   8   0   0   0)

     GPU acceleration is ACTIVE.  1 visible GPUs per MPI rank
     GPU-aware MPI enabled


     GPU used by master process:

        Device Number: 0
        Device name: NVIDIA A100-SXM-64GB
        Compute capability : 80
        Ratio of single to double precision performance  : 2
        Memory Clock Rate (KHz): 1593000
        Memory Bus Width (bits): 4096
        Peak Memory Bandwidth (GB/s): ******

     celldm(1)=  10.041851  celldm(2)=   0.000000  celldm(3)=   0.000000
     celldm(4)=   0.000000  celldm(5)=   0.000000  celldm(6)=   0.000000

     crystal axes: (cart. coord. in units of alat)
               a(1) = (   1.000000   0.000000   0.000000 )  
               a(2) = (   0.000000   1.305120   0.000000 )  
               a(3) = (   0.000000   0.000000   1.645719 )  

     reciprocal axes: (cart. coord. in units 2 pi/alat)
               b(1) = (  1.000000  0.000000  0.000000 )  
               b(2) = (  0.000000  0.766213  0.000000 )  
               b(3) = (  0.000000  0.000000  0.607637 )  


     PseudoPot. # 1 for Cr read from file:
     /leonardo_scratch/large/userexternal/nalghamd/mc_mace/GNoME-screening/2_space_group_DFT/pseudo_SSSP1.3_aiida/cr_pbesol_v1.5.uspp.F.UPF
     MD5 check sum: a621641e0be27168676a837af8893d0f
     Pseudo is Ultrasoft + core correction, Zval = 14.0
     Generated by new atomic code, or converted to UPF format
     Using radial grid of  857 points,  6 beta functions with: 
                l(1) =   0
                l(2) =   0
                l(3) =   1
                l(4) =   1
                l(5) =   2
                l(6) =   2
     Q(r) pseudized with  8 coefficients,  rinner =    0.950   0.950   0.950
                                                       0.950   0.950

     PseudoPot. # 2 for Na read from file:
     /leonardo_scratch/large/userexternal/nalghamd/mc_mace/GNoME-screening/2_space_group_DFT/pseudo_SSSP1.3_aiida/na_pbesol_v1.5.uspp.F.UPF
     MD5 check sum: 164b46c7694b4bc5b1217b5d1ae6f423
     Pseudo is Ultrasoft, Zval =  9.0
     Generated by new atomic code, or converted to UPF format
     Using radial grid of  819 points,  5 beta functions with: 
                l(1) =   0
                l(2) =   0
                l(3) =   1
                l(4) =   1
                l(5) =   2
     Q(r) pseudized with  8 coefficients,  rinner =    1.250   1.250   1.250
                                                       1.250   1.250

     PseudoPot. # 3 for O  read from file:
     /leonardo_scratch/large/userexternal/nalghamd/mc_mace/GNoME-screening/2_space_group_DFT/pseudo_SSSP1.3_aiida/O.pbesol-n-kjpaw_psl.0.1.UPF
     MD5 check sum: 81d73d1479e654e5638b0319f0d6c2c7
     Pseudo is Projector augmented-wave + core cor, Zval =  6.0
     Generated using "atomic" code by A. Dal Corso  v.6.0 svn rev. 13079
     Shape of augmentation charge: BESSEL
     Using radial grid of 1095 points,  4 beta functions with: 
                l(1) =   0
                l(2) =   0
                l(3) =   1
                l(4) =   1
     Q(r) pseudized with 0 coefficients 


     PseudoPot. # 4 for P  read from file:
     /leonardo_scratch/large/userexternal/nalghamd/mc_mace/GNoME-screening/2_space_group_DFT/pseudo_SSSP1.3_aiida/P.pbesol-n-rrkjus_psl.1.0.0.UPF
     MD5 check sum: bbb94b1b16383820d6a769669b5d42db
     Pseudo is Ultrasoft + core correction, Zval =  5.0
     Generated using "atomic" code by A. Dal Corso  v.6.0 svn rev. 13079
     Using radial grid of 1147 points,  6 beta functions with: 
                l(1) =   0
                l(2) =   0
                l(3) =   1
                l(4) =   1
                l(5) =   2
                l(6) =   2
     Q(r) pseudized with 0 coefficients 


     atomic species   valence    mass     pseudopotential
     Cr               14.00    51.99610     Cr( 1.00)
     Na                9.00    22.98977     Na( 1.00)
     O                 6.00    15.99940     O ( 1.00)
     P                 5.00    30.97376     P ( 1.00)

     Starting magnetic structure 
     atomic species   magnetization
     Cr              0.357
     Na              0.100
     O               0.100
     P               0.100

      8 Sym. Ops., with inversion, found ( 6 have fractional translation)


                                    s                        frac. trans.

      isym =  1     identity                                     

 cryst.   s( 1) = (     1          0          0      )
                  (     0          1          0      )
                  (     0          0          1      )

 cart.    s( 1) = (  1.0000000  0.0000000  0.0000000 )
                  (  0.0000000  1.0000000  0.0000000 )
                  (  0.0000000  0.0000000  1.0000000 )


      isym =  2     180 deg rotation - cart. axis [0,0,1]        

 cryst.   s( 2) = (    -1          0          0      )    f =(  0.5000000 )
                  (     0         -1          0      )       (  0.5000000 )
                  (     0          0          1      )       ( -0.5000000 )

 cart.    s( 2) = ( -1.0000000  0.0000000  0.0000000 )    f =(  0.5000000 )
                  (  0.0000000 -1.0000000  0.0000000 )       (  0.6525601 )
                  (  0.0000000  0.0000000  1.0000000 )       ( -0.8228595 )


      isym =  3     180 deg rotation - cart. axis [0,1,0]        

 cryst.   s( 3) = (    -1          0          0      )    f =(  0.0000000 )
                  (     0          1          0      )       (  0.5000000 )
                  (     0          0         -1      )       (  0.0000000 )

 cart.    s( 3) = ( -1.0000000  0.0000000  0.0000000 )    f =(  0.0000000 )
                  (  0.0000000  1.0000000  0.0000000 )       (  0.6525601 )
                  (  0.0000000  0.0000000 -1.0000000 )       (  0.0000000 )


      isym =  4     180 deg rotation - cart. axis [1,0,0]        

 cryst.   s( 4) = (     1          0          0      )    f =( -0.5000000 )
                  (     0         -1          0      )       (  0.0000000 )
                  (     0          0         -1      )       (  0.5000000 )

 cart.    s( 4) = (  1.0000000  0.0000000  0.0000000 )    f =( -0.5000000 )
                  (  0.0000000 -1.0000000  0.0000000 )       (  0.0000000 )
                  (  0.0000000  0.0000000 -1.0000000 )       (  0.8228595 )


      isym =  5     inversion                                    

 cryst.   s( 5) = (    -1          0          0      )
                  (     0         -1          0      )
                  (     0          0         -1      )

 cart.    s( 5) = ( -1.0000000  0.0000000  0.0000000 )
                  (  0.0000000 -1.0000000  0.0000000 )
                  (  0.0000000  0.0000000 -1.0000000 )


      isym =  6     inv. 180 deg rotation - cart. axis [0,0,1]   

 cryst.   s( 6) = (     1          0          0      )    f =( -0.5000000 )
                  (     0          1          0      )       (  0.5000000 )
                  (     0          0         -1      )       (  0.5000000 )

 cart.    s( 6) = (  1.0000000  0.0000000  0.0000000 )    f =( -0.5000000 )
                  (  0.0000000  1.0000000  0.0000000 )       (  0.6525601 )
                  (  0.0000000  0.0000000 -1.0000000 )       (  0.8228595 )


      isym =  7     inv. 180 deg rotation - cart. axis [0,1,0]   

 cryst.   s( 7) = (     1          0          0      )    f =(  0.0000000 )
                  (     0         -1          0      )       (  0.5000000 )
                  (     0          0          1      )       (  0.0000000 )

 cart.    s( 7) = (  1.0000000  0.0000000  0.0000000 )    f =(  0.0000000 )
                  (  0.0000000 -1.0000000  0.0000000 )       (  0.6525601 )
                  (  0.0000000  0.0000000  1.0000000 )       (  0.0000000 )


      isym =  8     inv. 180 deg rotation - cart. axis [1,0,0]   

 cryst.   s( 8) = (    -1          0          0      )    f =(  0.5000000 )
                  (     0          1          0      )       (  0.0000000 )
                  (     0          0          1      )       ( -0.5000000 )

 cart.    s( 8) = ( -1.0000000  0.0000000  0.0000000 )    f =(  0.5000000 )
                  (  0.0000000  1.0000000  0.0000000 )       (  0.0000000 )
                  (  0.0000000  0.0000000  1.0000000 )       ( -0.8228595 )


   Cartesian axes

     site n.     atom                  positions (alat units)
         1        Na     tau(   1) = (   0.4459725   0.9788401   0.2553193  )
         2        Na     tau(   2) = (   0.5540275   0.3262800   1.3903997  )
         3        Na     tau(   3) = (   0.9459725   0.3262800   0.5675402  )
         4        Na     tau(   4) = (   0.0540275   0.9788401   1.0781788  )
         5        Cr     tau(   5) = (   0.5000000   0.0000000   0.8228595  )
         6        Cr     tau(   6) = (   0.0000000   0.0000000   0.0000000  )
         7        Cr     tau(   7) = (   0.5000000   0.6525601   0.8228595  )
         8        Cr     tau(   8) = (   0.0000000   0.6525601   0.0000000  )
         9        P      tau(   9) = (   0.0659083   0.3262800   1.1301535  )
        10        P      tau(  10) = (   0.4340917   0.3262800   0.3072939  )
        11        P      tau(  11) = (   0.9340917   0.9788401   0.5155656  )
        12        P      tau(  12) = (   0.5659083   0.9788401   1.3384251  )
        13        O      tau(  13) = (   0.9435335   0.9788401   0.2155707  )
        14        O      tau(  14) = (   0.4435335   0.3262800   0.6072888  )
        15        O      tau(  15) = (   0.0564665   0.3262800   1.4301483  )
        16        O      tau(  16) = (   0.5564665   0.9788401   1.0384302  )
        17        O      tau(  17) = (   0.3015508   0.9788401   1.4537686  )
        18        O      tau(  18) = (   0.8015508   0.3262800   1.0148099  )
        19        O      tau(  19) = (   0.6984492   0.3262800   0.1919504  )
        20        O      tau(  20) = (   0.1984492   0.9788401   0.6309091  )
        21        O      tau(  21) = (   0.2162966   0.5646657   1.0566465  )
        22        O      tau(  22) = (   0.7162966   0.7404545   1.4119321  )
        23        O      tau(  23) = (   0.7837034   1.2172257   0.5890725  )
        24        O      tau(  24) = (   0.2837034   0.0878944   0.2337870  )
        25        O      tau(  25) = (   0.7837034   0.7404545   0.5890725  )
        26        O      tau(  26) = (   0.2837034   0.5646657   0.2337870  )
        27        O      tau(  27) = (   0.2162966   0.0878944   1.0566465  )
        28        O      tau(  28) = (   0.7162966   1.2172257   1.4119321  )

   Crystallographic axes

     site n.     atom                  positions (cryst. coord.)
         1        Na     tau(   1) = (  0.4459725  0.7500000  0.1551415  )
         2        Na     tau(   2) = (  0.5540275  0.2500000  0.8448585  )
         3        Na     tau(   3) = (  0.9459725  0.2500000  0.3448585  )
         4        Na     tau(   4) = (  0.0540275  0.7500000  0.6551415  )
         5        Cr     tau(   5) = (  0.5000000  0.0000000  0.5000000  )
         6        Cr     tau(   6) = (  0.0000000  0.0000000  0.0000000  )
         7        Cr     tau(   7) = (  0.5000000  0.5000000  0.5000000  )
         8        Cr     tau(   8) = (  0.0000000  0.5000000  0.0000000  )
         9        P      tau(   9) = (  0.0659083  0.2500000  0.6867232  )
        10        P      tau(  10) = (  0.4340917  0.2500000  0.1867232  )
        11        P      tau(  11) = (  0.9340917  0.7500000  0.3132768  )
        12        P      tau(  12) = (  0.5659083  0.7500000  0.8132768  )
        13        O      tau(  13) = (  0.9435335  0.7500000  0.1309888  )
        14        O      tau(  14) = (  0.4435335  0.2500000  0.3690112  )
        15        O      tau(  15) = (  0.0564665  0.2500000  0.8690112  )
        16        O      tau(  16) = (  0.5564665  0.7500000  0.6309888  )
        17        O      tau(  17) = (  0.3015508  0.7500000  0.8833638  )
        18        O      tau(  18) = (  0.8015508  0.2500000  0.6166362  )
        19        O      tau(  19) = (  0.6984492  0.2500000  0.1166362  )
        20        O      tau(  20) = (  0.1984492  0.7500000  0.3833638  )
        21        O      tau(  21) = (  0.2162966  0.4326542  0.6420576  )
        22        O      tau(  22) = (  0.7162966  0.5673458  0.8579424  )
        23        O      tau(  23) = (  0.7837034  0.9326542  0.3579424  )
        24        O      tau(  24) = (  0.2837034  0.0673458  0.1420576  )
        25        O      tau(  25) = (  0.7837034  0.5673458  0.3579424  )
        26        O      tau(  26) = (  0.2837034  0.4326542  0.1420576  )
        27        O      tau(  27) = (  0.2162966  0.0673458  0.6420576  )
        28        O      tau(  28) = (  0.7162966  0.9326542  0.8579424  )

     number of k points=    60  Marzari-Vanderbilt smearing, width (Ry)=  0.0200
                       cart. coord. in units 2pi/alat
        k(    1) = (   0.0000000   0.0000000   0.0000000), wk =   0.0035714
        k(    2) = (   0.0000000   0.0000000   0.1215274), wk =   0.0071429
        k(    3) = (   0.0000000   0.0000000   0.2430549), wk =   0.0071429
        k(    4) = (   0.0000000   0.1094590   0.0000000), wk =   0.0071429
        k(    5) = (   0.0000000   0.1094590   0.1215274), wk =   0.0142857
        k(    6) = (   0.0000000   0.1094590   0.2430549), wk =   0.0142857
        k(    7) = (   0.0000000   0.2189180   0.0000000), wk =   0.0071429
        k(    8) = (   0.0000000   0.2189180   0.1215274), wk =   0.0142857
        k(    9) = (   0.0000000   0.2189180   0.2430549), wk =   0.0142857
        k(   10) = (   0.0000000   0.3283770   0.0000000), wk =   0.0071429
        k(   11) = (   0.0000000   0.3283770   0.1215274), wk =   0.0142857
        k(   12) = (   0.0000000   0.3283770   0.2430549), wk =   0.0142857
        k(   13) = (   0.1250000   0.0000000   0.0000000), wk =   0.0071429
        k(   14) = (   0.1250000   0.0000000   0.1215274), wk =   0.0142857
        k(   15) = (   0.1250000   0.0000000   0.2430549), wk =   0.0142857
        k(   16) = (   0.1250000   0.1094590   0.0000000), wk =   0.0142857
        k(   17) = (   0.1250000   0.1094590   0.1215274), wk =   0.0285714
        k(   18) = (   0.1250000   0.1094590   0.2430549), wk =   0.0285714
        k(   19) = (   0.1250000   0.2189180   0.0000000), wk =   0.0142857
        k(   20) = (   0.1250000   0.2189180   0.1215274), wk =   0.0285714
        k(   21) = (   0.1250000   0.2189180   0.2430549), wk =   0.0285714
        k(   22) = (   0.1250000   0.3283770   0.0000000), wk =   0.0142857
        k(   23) = (   0.1250000   0.3283770   0.1215274), wk =   0.0285714
        k(   24) = (   0.1250000   0.3283770   0.2430549), wk =   0.0285714
        k(   25) = (   0.2500000   0.0000000   0.0000000), wk =   0.0071429
        k(   26) = (   0.2500000   0.0000000   0.1215274), wk =   0.0142857
        k(   27) = (   0.2500000   0.0000000   0.2430549), wk =   0.0142857
        k(   28) = (   0.2500000   0.1094590   0.0000000), wk =   0.0142857
        k(   29) = (   0.2500000   0.1094590   0.1215274), wk =   0.0285714
        k(   30) = (   0.2500000   0.1094590   0.2430549), wk =   0.0285714
        k(   31) = (   0.2500000   0.2189180   0.0000000), wk =   0.0142857
        k(   32) = (   0.2500000   0.2189180   0.1215274), wk =   0.0285714
        k(   33) = (   0.2500000   0.2189180   0.2430549), wk =   0.0285714
        k(   34) = (   0.2500000   0.3283770   0.0000000), wk =   0.0142857
        k(   35) = (   0.2500000   0.3283770   0.1215274), wk =   0.0285714
        k(   36) = (   0.2500000   0.3283770   0.2430549), wk =   0.0285714
        k(   37) = (   0.3750000   0.0000000   0.0000000), wk =   0.0071429
        k(   38) = (   0.3750000   0.0000000   0.1215274), wk =   0.0142857
        k(   39) = (   0.3750000   0.0000000   0.2430549), wk =   0.0142857
        k(   40) = (   0.3750000   0.1094590   0.0000000), wk =   0.0142857
        k(   41) = (   0.3750000   0.1094590   0.1215274), wk =   0.0285714
        k(   42) = (   0.3750000   0.1094590   0.2430549), wk =   0.0285714
        k(   43) = (   0.3750000   0.2189180   0.0000000), wk =   0.0142857
        k(   44) = (   0.3750000   0.2189180   0.1215274), wk =   0.0285714
        k(   45) = (   0.3750000   0.2189180   0.2430549), wk =   0.0285714
        k(   46) = (   0.3750000   0.3283770   0.0000000), wk =   0.0142857
        k(   47) = (   0.3750000   0.3283770   0.1215274), wk =   0.0285714
        k(   48) = (   0.3750000   0.3283770   0.2430549), wk =   0.0285714
        k(   49) = (  -0.5000000   0.0000000   0.0000000), wk =   0.0035714
        k(   50) = (  -0.5000000   0.0000000   0.1215274), wk =   0.0071429
        k(   51) = (  -0.5000000   0.0000000   0.2430549), wk =   0.0071429
        k(   52) = (  -0.5000000   0.1094590   0.0000000), wk =   0.0071429
        k(   53) = (  -0.5000000   0.1094590   0.1215274), wk =   0.0142857
        k(   54) = (  -0.5000000   0.1094590   0.2430549), wk =   0.0142857
        k(   55) = (  -0.5000000   0.2189180   0.0000000), wk =   0.0071429
        k(   56) = (  -0.5000000   0.2189180   0.1215274), wk =   0.0142857
        k(   57) = (  -0.5000000   0.2189180   0.2430549), wk =   0.0142857
        k(   58) = (  -0.5000000   0.3283770   0.0000000), wk =   0.0071429
        k(   59) = (  -0.5000000   0.3283770   0.1215274), wk =   0.0142857
        k(   60) = (  -0.5000000   0.3283770   0.2430549), wk =   0.0142857

                       cryst. coord.
        k(    1) = (   0.0000000   0.0000000   0.0000000), wk =   0.0035714
        k(    2) = (   0.0000000   0.0000000   0.2000000), wk =   0.0071429
        k(    3) = (   0.0000000   0.0000000   0.4000000), wk =   0.0071429
        k(    4) = (   0.0000000   0.1428571   0.0000000), wk =   0.0071429
        k(    5) = (   0.0000000   0.1428571   0.2000000), wk =   0.0142857
        k(    6) = (   0.0000000   0.1428571   0.4000000), wk =   0.0142857
        k(    7) = (   0.0000000   0.2857143   0.0000000), wk =   0.0071429
        k(    8) = (   0.0000000   0.2857143   0.2000000), wk =   0.0142857
        k(    9) = (   0.0000000   0.2857143   0.4000000), wk =   0.0142857
        k(   10) = (   0.0000000   0.4285714   0.0000000), wk =   0.0071429
        k(   11) = (   0.0000000   0.4285714   0.2000000), wk =   0.0142857
        k(   12) = (   0.0000000   0.4285714   0.4000000), wk =   0.0142857
        k(   13) = (   0.1250000   0.0000000   0.0000000), wk =   0.0071429
        k(   14) = (   0.1250000   0.0000000   0.2000000), wk =   0.0142857
        k(   15) = (   0.1250000   0.0000000   0.4000000), wk =   0.0142857
        k(   16) = (   0.1250000   0.1428571   0.0000000), wk =   0.0142857
        k(   17) = (   0.1250000   0.1428571   0.2000000), wk =   0.0285714
        k(   18) = (   0.1250000   0.1428571   0.4000000), wk =   0.0285714
        k(   19) = (   0.1250000   0.2857143   0.0000000), wk =   0.0142857
        k(   20) = (   0.1250000   0.2857143   0.2000000), wk =   0.0285714
        k(   21) = (   0.1250000   0.2857143   0.4000000), wk =   0.0285714
        k(   22) = (   0.1250000   0.4285714   0.0000000), wk =   0.0142857
        k(   23) = (   0.1250000   0.4285714   0.2000000), wk =   0.0285714
        k(   24) = (   0.1250000   0.4285714   0.4000000), wk =   0.0285714
        k(   25) = (   0.2500000   0.0000000   0.0000000), wk =   0.0071429
        k(   26) = (   0.2500000   0.0000000   0.2000000), wk =   0.0142857
        k(   27) = (   0.2500000   0.0000000   0.4000000), wk =   0.0142857
        k(   28) = (   0.2500000   0.1428571   0.0000000), wk =   0.0142857
        k(   29) = (   0.2500000   0.1428571   0.2000000), wk =   0.0285714
        k(   30) = (   0.2500000   0.1428571   0.4000000), wk =   0.0285714
        k(   31) = (   0.2500000   0.2857143   0.0000000), wk =   0.0142857
        k(   32) = (   0.2500000   0.2857143   0.2000000), wk =   0.0285714
        k(   33) = (   0.2500000   0.2857143   0.4000000), wk =   0.0285714
        k(   34) = (   0.2500000   0.4285714   0.0000000), wk =   0.0142857
        k(   35) = (   0.2500000   0.4285714   0.2000000), wk =   0.0285714
        k(   36) = (   0.2500000   0.4285714   0.4000000), wk =   0.0285714
        k(   37) = (   0.3750000   0.0000000   0.0000000), wk =   0.0071429
        k(   38) = (   0.3750000   0.0000000   0.2000000), wk =   0.0142857
        k(   39) = (   0.3750000   0.0000000   0.4000000), wk =   0.0142857
        k(   40) = (   0.3750000   0.1428571   0.0000000), wk =   0.0142857
        k(   41) = (   0.3750000   0.1428571   0.2000000), wk =   0.0285714
        k(   42) = (   0.3750000   0.1428571   0.4000000), wk =   0.0285714
        k(   43) = (   0.3750000   0.2857143   0.0000000), wk =   0.0142857
        k(   44) = (   0.3750000   0.2857143   0.2000000), wk =   0.0285714
        k(   45) = (   0.3750000   0.2857143   0.4000000), wk =   0.0285714
        k(   46) = (   0.3750000   0.4285714   0.0000000), wk =   0.0142857
        k(   47) = (   0.3750000   0.4285714   0.2000000), wk =   0.0285714
        k(   48) = (   0.3750000   0.4285714   0.4000000), wk =   0.0285714
        k(   49) = (  -0.5000000   0.0000000   0.0000000), wk =   0.0035714
        k(   50) = (  -0.5000000   0.0000000   0.2000000), wk =   0.0071429
        k(   51) = (  -0.5000000   0.0000000   0.4000000), wk =   0.0071429
        k(   52) = (  -0.5000000   0.1428571   0.0000000), wk =   0.0071429
        k(   53) = (  -0.5000000   0.1428571   0.2000000), wk =   0.0142857
        k(   54) = (  -0.5000000   0.1428571   0.4000000), wk =   0.0142857
        k(   55) = (  -0.5000000   0.2857143   0.0000000), wk =   0.0071429
        k(   56) = (  -0.5000000   0.2857143   0.2000000), wk =   0.0142857
        k(   57) = (  -0.5000000   0.2857143   0.4000000), wk =   0.0142857
        k(   58) = (  -0.5000000   0.4285714   0.0000000), wk =   0.0071429
        k(   59) = (  -0.5000000   0.4285714   0.2000000), wk =   0.0142857
        k(   60) = (  -0.5000000   0.4285714   0.4000000), wk =   0.0142857

     Dense  grid:   293897 G-vectors     FFT dimensions: (  64,  90, 108)

     Smooth grid:   103925 G-vectors     FFT dimensions: (  48,  60,  80)

     Dynamical RAM for                 wfc:      24.77 MB

     Dynamical RAM for     wfc (w. buffer):    2996.80 MB

     Dynamical RAM for           str. fact:      17.94 MB

     Dynamical RAM for           local pot:       0.00 MB

     Dynamical RAM for          nlocal pot:      64.20 MB

     Dynamical RAM for                qrad:       6.42 MB

     Dynamical RAM for          rho,v,vnew:      55.38 MB

     Dynamical RAM for               rhoin:      18.46 MB

     Dynamical RAM for            rho*nmix:     143.50 MB

     Dynamical RAM for           G-vectors:      17.61 MB

     Dynamical RAM for          h,s,v(r/c):       2.86 MB

     Dynamical RAM for          <psi|beta>:       0.62 MB

     Dynamical RAM for                 psi:      49.53 MB

     Dynamical RAM for                hpsi:      49.53 MB

     Dynamical RAM for                spsi:      49.53 MB

     Dynamical RAM for      wfcinit/wfcrot:      49.89 MB

     Dynamical RAM for           addusdens:     910.36 MB

     Dynamical RAM for          addusforce:    1045.02 MB

     Dynamical RAM for         addusstress:     908.11 MB

     Estimated static dynamical RAM per process >       3.15 GB

     Estimated max dynamical RAM per process >       4.31 GB

     Check: negative core charge=   -0.000003
     Generating pointlists ...
     new r_m :   0.1559 (alat units)  1.5657 (a.u.) for type    1
     new r_m :   0.1837 (alat units)  1.8448 (a.u.) for type    2
     new r_m :   0.1190 (alat units)  1.1947 (a.u.) for type    3
     new r_m :   0.1190 (alat units)  1.1947 (a.u.) for type    4

     Initial potential from superposition of free atoms

     starting charge     203.9736, renormalised to     208.0000

     negative rho (up, down):  2.748E-03 1.296E-03
     Starting wfcs are  140 randomized atomic wfcs
     Checking if some PAW data can be deallocated... 

     total cpu time spent up to now is        7.1 secs

     Self-consistent Calculation
[tb_dev] Currently allocated     2.08E+00 Mbytes, locked:    0 /   6
[tb_pin] Currently allocated     0.00E+00 Mbytes, locked:    0 /   0

     iteration #  1     ecut=    50.00 Ry     beta= 0.40
     Davidson diagonalization with overlap

---- Real-time Memory Report at c_bands before calling an iterative solver
          4019 MiB given to the printing process from OS
          -696 MiB allocation reported by mallinfo(arena+hblkhd)
        419100 MiB available memory on the node where the printing process lives
     GPU memory used/free/total (MiB): 2610 / 62334 / 64944
------------------
     ethr =  1.00E-02,  avg # of iterations =  4.7
     Minimization algorithm failed to find Fermi energy: reverting to bisection
     Possible cause: smearing is larger than the electronic band-gap.

     negative rho (up, down):  5.070E-04 4.213E-03

     total cpu time spent up to now is       18.6 secs

     total energy              =   -1797.66229902 Ry
     estimated scf accuracy    <       4.44577857 Ry

     total magnetization       =    16.00 Bohr mag/cell
     absolute magnetization    =    16.75 Bohr mag/cell
[tb_dev] Currently allocated     2.14E-04 Mbytes, locked:    0 /   2
[tb_pin] Currently allocated     0.00E+00 Mbytes, locked:    0 /   0

     iteration #  2     ecut=    50.00 Ry     beta= 0.40
     Davidson diagonalization with overlap

---- Real-time Memory Report at c_bands before calling an iterative solver
          4063 MiB given to the printing process from OS
          -628 MiB allocation reported by mallinfo(arena+hblkhd)
        418923 MiB available memory on the node where the printing process lives
     GPU memory used/free/total (MiB): 2770 / 62174 / 64944
------------------
     ethr =  2.14E-03,  avg # of iterations =  2.1
     Minimization algorithm failed to find Fermi energy: reverting to bisection
     Possible cause: smearing is larger than the electronic band-gap.

     negative rho (up, down):  0.000E+00 9.734E-03

     total cpu time spent up to now is       27.9 secs

     total energy              =   -1798.71991155 Ry
     estimated scf accuracy    <       0.42250898 Ry

     total magnetization       =    16.00 Bohr mag/cell
     absolute magnetization    =    16.47 Bohr mag/cell
[tb_dev] Currently allocated     2.14E-04 Mbytes, locked:    0 /   2
[tb_pin] Currently allocated     0.00E+00 Mbytes, locked:    0 /   0

     iteration #  3     ecut=    50.00 Ry     beta= 0.40
     Davidson diagonalization with overlap

---- Real-time Memory Report at c_bands before calling an iterative solver
          4090 MiB given to the printing process from OS
          -612 MiB allocation reported by mallinfo(arena+hblkhd)
        418746 MiB available memory on the node where the printing process lives
     GPU memory used/free/total (MiB): 2770 / 62174 / 64944
------------------
     c_bands:  1 eigenvalues not converged
     c_bands:  1 eigenvalues not converged
     c_bands:  1 eigenvalues not converged
     ethr =  2.03E-04,  avg # of iterations = 10.8
     Minimization algorithm failed to find Fermi energy: reverting to bisection
     Possible cause: smearing is larger than the electronic band-gap.

     negative rho (up, down):  0.000E+00 1.643E-02

     total cpu time spent up to now is       43.4 secs

     total energy              =   -1798.78725268 Ry
     estimated scf accuracy    <       0.16767202 Ry

     total magnetization       =    16.00 Bohr mag/cell
     absolute magnetization    =    16.38 Bohr mag/cell
[tb_dev] Currently allocated     2.14E-04 Mbytes, locked:    0 /   2
[tb_pin] Currently allocated     0.00E+00 Mbytes, locked:    0 /   0

     iteration #  4     ecut=    50.00 Ry     beta= 0.40
     Davidson diagonalization with overlap

---- Real-time Memory Report at c_bands before calling an iterative solver
          4104 MiB given to the printing process from OS
          -602 MiB allocation reported by mallinfo(arena+hblkhd)
        418594 MiB available memory on the node where the printing process lives
     GPU memory used/free/total (MiB): 2770 / 62174 / 64944
------------------
     ethr =  8.06E-05,  avg # of iterations =  3.7
     Minimization algorithm failed to find Fermi energy: reverting to bisection
     Possible cause: smearing is larger than the electronic band-gap.

     negative rho (up, down):  0.000E+00 1.785E-02

     total cpu time spent up to now is       54.0 secs

     total energy              =   -1798.80824259 Ry
     estimated scf accuracy    <       0.02576861 Ry

     total magnetization       =    16.00 Bohr mag/cell
     absolute magnetization    =    16.38 Bohr mag/cell
[tb_dev] Currently allocated     2.14E-04 Mbytes, locked:    0 /   2
[tb_pin] Currently allocated     0.00E+00 Mbytes, locked:    0 /   0

     iteration #  5     ecut=    50.00 Ry     beta= 0.40
     Davidson diagonalization with overlap

---- Real-time Memory Report at c_bands before calling an iterative solver
          4116 MiB given to the printing process from OS
          -596 MiB allocation reported by mallinfo(arena+hblkhd)
        418529 MiB available memory on the node where the printing process lives
     GPU memory used/free/total (MiB): 2770 / 62174 / 64944
------------------
     c_bands:  1 eigenvalues not converged
     c_bands:  1 eigenvalues not converged
     c_bands:  1 eigenvalues not converged
     c_bands:  1 eigenvalues not converged
     c_bands:  1 eigenvalues not converged
     c_bands:  1 eigenvalues not converged
     c_bands:  1 eigenvalues not converged
     c_bands:  1 eigenvalues not converged
     c_bands:  1 eigenvalues not converged
     c_bands:  1 eigenvalues not converged
     ethr =  1.24E-05,  avg # of iterations = 12.8
     Minimization algorithm failed to find Fermi energy: reverting to bisection
     Possible cause: smearing is larger than the electronic band-gap.

     negative rho (up, down):  0.000E+00 1.812E-02

     total cpu time spent up to now is       70.9 secs

     total energy              =   -1798.80840015 Ry
     estimated scf accuracy    <       0.00588127 Ry

     total magnetization       =    16.00 Bohr mag/cell
     absolute magnetization    =    16.37 Bohr mag/cell
[tb_dev] Currently allocated     2.14E-04 Mbytes, locked:    0 /   2
[tb_pin] Currently allocated     0.00E+00 Mbytes, locked:    0 /   0

     iteration #  6     ecut=    50.00 Ry     beta= 0.40
     Davidson diagonalization with overlap

---- Real-time Memory Report at c_bands before calling an iterative solver
          4127 MiB given to the printing process from OS
          -589 MiB allocation reported by mallinfo(arena+hblkhd)
        418359 MiB available memory on the node where the printing process lives
     GPU memory used/free/total (MiB): 2770 / 62174 / 64944
------------------
     c_bands:  1 eigenvalues not converged
     c_bands:  1 eigenvalues not converged
     c_bands:  1 eigenvalues not converged
     c_bands:  2 eigenvalues not converged
     ethr =  2.83E-06,  avg # of iterations =  7.9
     Minimization algorithm failed to find Fermi energy: reverting to bisection
     Possible cause: smearing is larger than the electronic band-gap.

     negative rho (up, down):  0.000E+00 1.823E-02

     total cpu time spent up to now is       85.9 secs

     total energy              =   -1798.81015194 Ry
     estimated scf accuracy    <       0.00045618 Ry

     total magnetization       =    16.00 Bohr mag/cell
     absolute magnetization    =    16.39 Bohr mag/cell
[tb_dev] Currently allocated     2.14E-04 Mbytes, locked:    0 /   2
[tb_pin] Currently allocated     0.00E+00 Mbytes, locked:    0 /   0

     iteration #  7     ecut=    50.00 Ry     beta= 0.40
     Davidson diagonalization with overlap

---- Real-time Memory Report at c_bands before calling an iterative solver
          4153 MiB given to the printing process from OS
          -573 MiB allocation reported by mallinfo(arena+hblkhd)
        418220 MiB available memory on the node where the printing process lives
     GPU memory used/free/total (MiB): 2770 / 62174 / 64944
------------------
     c_bands:  1 eigenvalues not converged
     ethr =  2.19E-07,  avg # of iterations =  2.4
     Minimization algorithm failed to find Fermi energy: reverting to bisection
     Possible cause: smearing is larger than the electronic band-gap.

     negative rho (up, down):  0.000E+00 1.826E-02

     total cpu time spent up to now is       95.4 secs

     total energy              =   -1798.81024368 Ry
     estimated scf accuracy    <       0.00009938 Ry

     total magnetization       =    16.00 Bohr mag/cell
     absolute magnetization    =    16.40 Bohr mag/cell
[tb_dev] Currently allocated     2.14E-04 Mbytes, locked:    0 /   2
[tb_pin] Currently allocated     0.00E+00 Mbytes, locked:    0 /   0

     iteration #  8     ecut=    50.00 Ry     beta= 0.40
     Davidson diagonalization with overlap

---- Real-time Memory Report at c_bands before calling an iterative solver
          4160 MiB given to the printing process from OS
          -519 MiB allocation reported by mallinfo(arena+hblkhd)
        418107 MiB available memory on the node where the printing process lives
     GPU memory used/free/total (MiB): 2770 / 62174 / 64944
------------------
     ethr =  4.78E-08,  avg # of iterations =  2.6
     Minimization algorithm failed to find Fermi energy: reverting to bisection
     Possible cause: smearing is larger than the electronic band-gap.

     negative rho (up, down):  0.000E+00 1.826E-02

     total cpu time spent up to now is      104.9 secs

     total energy              =   -1798.81028514 Ry
     estimated scf accuracy    <       0.00002000 Ry

     total magnetization       =    16.00 Bohr mag/cell
     absolute magnetization    =    16.40 Bohr mag/cell
[tb_dev] Currently allocated     2.14E-04 Mbytes, locked:    0 /   2
[tb_pin] Currently allocated     0.00E+00 Mbytes, locked:    0 /   0

     iteration #  9     ecut=    50.00 Ry     beta= 0.40
     Davidson diagonalization with overlap

---- Real-time Memory Report at c_bands before calling an iterative solver
          4164 MiB given to the printing process from OS
          -563 MiB allocation reported by mallinfo(arena+hblkhd)
        418000 MiB available memory on the node where the printing process lives
     GPU memory used/free/total (MiB): 2770 / 62174 / 64944
------------------
     ethr =  9.61E-09,  avg # of iterations =  2.0
     Minimization algorithm failed to find Fermi energy: reverting to bisection
     Possible cause: smearing is larger than the electronic band-gap.

     negative rho (up, down):  0.000E+00 1.824E-02
 
     Magnetic moment per site  (integrated on atomic sphere of radius R)
     atom   1 (R=0.184)  charge=  7.9655  magn=  0.0009
     atom   2 (R=0.184)  charge=  7.9655  magn=  0.0009
     atom   3 (R=0.184)  charge=  7.9655  magn=  0.0009
     atom   4 (R=0.184)  charge=  7.9655  magn=  0.0009
     atom   5 (R=0.156)  charge= 11.0698  magn=  3.0389
     atom   6 (R=0.156)  charge= 11.0698  magn=  3.0389
     atom   7 (R=0.156)  charge= 11.0698  magn=  3.0389
     atom   8 (R=0.156)  charge= 11.0698  magn=  3.0389
     atom   9 (R=0.119)  charge=  0.8513  magn=  0.0086
     atom  10 (R=0.119)  charge=  0.8513  magn=  0.0086
     atom  11 (R=0.119)  charge=  0.8513  magn=  0.0086
     atom  12 (R=0.119)  charge=  0.8513  magn=  0.0086
     atom  13 (R=0.119)  charge=  4.2247  magn= -0.0139
     atom  14 (R=0.119)  charge=  4.2247  magn= -0.0139
     atom  15 (R=0.119)  charge=  4.2247  magn= -0.0139
     atom  16 (R=0.119)  charge=  4.2247  magn= -0.0139
     atom  17 (R=0.119)  charge=  4.2245  magn=  0.0302
     atom  18 (R=0.119)  charge=  4.2245  magn=  0.0302
     atom  19 (R=0.119)  charge=  4.2245  magn=  0.0302
     atom  20 (R=0.119)  charge=  4.2245  magn=  0.0302
     atom  21 (R=0.119)  charge=  4.2448  magn=  0.0065
     atom  22 (R=0.119)  charge=  4.2448  magn=  0.0065
     atom  23 (R=0.119)  charge=  4.2448  magn=  0.0065
     atom  24 (R=0.119)  charge=  4.2448  magn=  0.0065
     atom  25 (R=0.119)  charge=  4.2448  magn=  0.0065
     atom  26 (R=0.119)  charge=  4.2448  magn=  0.0065
     atom  27 (R=0.119)  charge=  4.2448  magn=  0.0065
     atom  28 (R=0.119)  charge=  4.2448  magn=  0.0065

     total cpu time spent up to now is      114.2 secs

     End of self-consistent calculation

 ------ SPIN UP ------------


          k = 0.0000 0.0000 0.0000 ( 12991 PWs)   bands (ev):

   -64.0121 -64.0121 -64.0110 -64.0110 -43.0942 -43.0941 -43.0941 -43.0940
   -35.6480 -35.6478 -35.6418 -35.6416 -35.6316 -35.6316 -35.6142 -35.6141
   -35.2587 -35.2587 -35.2529 -35.2529 -15.2670 -15.2614 -15.2496 -15.2374
   -15.2331 -15.2308 -15.2015 -15.2012 -15.1981 -15.1929 -15.1853 -15.1795
   -14.6873 -14.4301 -14.3916 -14.3240 -12.4017 -12.1064 -12.0688 -12.0560
   -12.0343 -11.9274 -11.8962 -11.8052 -11.7559 -11.7256 -11.6654 -11.6583
    -2.5852  -2.0386  -1.9211  -1.5900  -0.4741  -0.2099  -0.0882   0.1347
     0.3078   0.3193   0.4751   0.5889   0.7834   0.8489   0.9470   0.9638
     1.4930   1.8426   2.0034   2.1468   2.4427   2.5244   2.5351   2.8066
     2.8436   2.9456   2.9507   3.0137   3.0231   3.0277   3.3452   3.4593
     3.8786   3.8917   3.9464   3.9748   4.0471   4.1406   4.4252   4.6659
     4.6880   4.7656   4.7789   4.7969   4.8848   5.0352   5.1454   5.1578
     7.1813   7.3479   7.4255   7.5925   7.5939   7.6332   7.6686   7.7724
     7.8383   7.9810   7.9823   8.0151   8.2836   8.2916   8.3041   8.5414
     9.3240   9.5576   9.8720  10.3660  10.6217  12.2852  13.3358  13.4362
    13.9185  14.0181  14.3677  14.5151  14.6881

     occupation numbers 
     1.0000   1.0000   1.0000   1.0000   1.0000   1.0000   1.0000   1.0000
     1.0000   1.0000   1.0000   1.0000   1.0000   1.0000   1.0000   1.0000
     1.0000   1.0000   1.0000   1.0000   1.0000   1.0000   1.0000   1.0000
     1.0000   1.0000   1.0000   1.0000   1.0000   1.0000   1.0000   1.0000
     1.0000   1.0000   1.0000   1.0000   1.0000   1.0000   1.0000   1.0000
     1.0000   1.0000   1.0000   1.0000   1.0000   1.0000   1.0000   1.0000
     1.0000   1.0000   1.0000   1.0000   1.0000   1.0000   1.0000   1.0000
     1.0000   1.0000   1.0000   1.0000   1.0000   1.0000   1.0000   1.0000
     1.0000   1.0000   1.0000   1.0000   1.0000   1.0000   1.0000   1.0000
     1.0000   1.0000   1.0000   1.0000   1.0000   1.0000   1.0000   1.0000
     1.0000   1.0000   1.0000   1.0000   1.0000   1.0000   1.0000   1.0000
     1.0000   1.0000   1.0000   1.0000   1.0000   1.0000   1.0000   1.0000
     1.0000   1.0000   1.0000   1.0000   1.0000   1.0000   1.0000   1.0002
     1.0006   1.0057   1.0058   1.0089   1.0789   1.0804   1.0822   0.8419
     0.0001   0.0000   0.0000   0.0000   0.0000   0.0000   0.0000   0.0000
     0.0000   0.0000   0.0000   0.0000   0.0000

          k = 0.0000 0.0000 0.1215 ( 13007 PWs)   bands (ev):

   -64.0121 -64.0121 -64.0110 -64.0110 -43.0942 -43.0941 -43.0941 -43.0940
   -35.6480 -35.6478 -35.6418 -35.6417 -35.6316 -35.6316 -35.6141 -35.6141
   -35.2587 -35.2587 -35.2529 -35.2529 -15.2646 -15.2555 -15.2496 -15.2376
   -15.2348 -15.2289 -15.2076 -15.2039 -15.2009 -15.1942 -15.1843 -15.1799
   -14.6634 -14.4568 -14.3843 -14.3290 -12.3672 -12.1022 -12.0941 -12.0655
   -12.0280 -11.9509 -11.8743 -11.8100 -11.7538 -11.7293 -11.6642 -11.6585
    -2.5170  -2.0557  -1.9203  -1.6779  -0.4336  -0.1656  -0.0363   0.0266
     0.3178   0.3856   0.4538   0.5542   0.7392   0.8328   0.8789   0.9393
     1.5510   1.9088   1.9534   2.2100   2.4506   2.5133   2.6606   2.7882
     2.8320   2.8874   2.9421   3.0148   3.0184   3.0722   3.4368   3.4397
     3.8560   3.8592   3.9423   3.9896   4.0563   4.0894   4.3762   4.6466
     4.7174   4.7865   4.8009   4.8169   4.8896   5.0058   5.0212   5.1887
     7.1978   7.3335   7.4446   7.5879   7.6096   7.6418   7.6941   7.7612
     7.8247   7.9671   7.9845   8.0122   8.2832   8.2901   8.3293   8.5233
     9.3722   9.6255   9.8281  10.2788  10.7385  12.0808  13.3129  13.4390
    13.9171  14.1157  14.4432  14.5525  14.6445

     occupation numbers 
     1.0000   1.0000   1.0000   1.0000   1.0000   1.0000   1.0000   1.0000
     1.0000   1.0000   1.0000   1.0000   1.0000   1.0000   1.0000   1.0000
     1.0000   1.0000   1.0000   1.0000   1.0000   1.0000   1.0000   1.0000
     1.0000   1.0000   1.0000   1.0000   1.0000   1.0000   1.0000   1.0000
     1.0000   1.0000   1.0000   1.0000   1.0000   1.0000   1.0000   1.0000
     1.0000   1.0000   1.0000   1.0000   1.0000   1.0000   1.0000   1.0000
     1.0000   1.0000   1.0000   1.0000   1.0000   1.0000   1.0000   1.0000
     1.0000   1.0000   1.0000   1.0000   1.0000   1.0000   1.0000   1.0000
     1.0000   1.0000   1.0000   1.0000   1.0000   1.0000   1.0000   1.0000
     1.0000   1.0000   1.0000   1.0000   1.0000   1.0000   1.0000   1.0000
     1.0000   1.0000   1.0000   1.0000   1.0000   1.0000   1.0000   1.0000
     1.0000   1.0000   1.0000   1.0000   1.0000   1.0000   1.0000   1.0000
     1.0000   1.0000   1.0000   1.0000   1.0000   1.0000   1.0000   1.0001
     1.0005   1.0047   1.0060   1.0086   1.0788   1.0802   1.0832   0.8825
     0.0000   0.0000   0.0000   0.0000   0.0000   0.0000   0.0000   0.0000
     0.0000   0.0000   0.0000   0.0000   0.0000

          k = 0.0000 0.0000 0.2431 ( 12989 PWs)   bands (ev):

   -64.0121 -64.0121 -64.0110 -64.0110 -43.0941 -43.0941 -43.0940 -43.0940
   -35.6479 -35.6479 -35.6417 -35.6417 -35.6316 -35.6316 -35.6141 -35.6141
   -35.2587 -35.2587 -35.2529 -35.2529 -15.2574 -15.2510 -15.2416 -15.2380
   -15.2367 -15.2248 -15.2234 -15.2158 -15.1991 -15.1967 -15.1825 -15.1809
   -14.6010 -14.5230 -14.3657 -14.3443 -12.2792 -12.1747 -12.0914 -12.0777
   -12.0100 -11.9829 -11.8463 -11.8240 -11.7474 -11.7380 -11.6616 -11.6596
    -2.3379  -2.1426  -1.9073  -1.8372  -0.3191  -0.1527  -0.0574   0.0231
     0.3073   0.3836   0.5056   0.5902   0.6319   0.7272   0.8227   0.8684
     1.6879   1.8377   2.0713   2.2708   2.3597   2.5639   2.6656   2.8157
     2.9024   2.9157   2.9853   3.0318   3.0637   3.1014   3.4058   3.5549
     3.6892   3.7669   3.8423   3.8803   4.1703   4.2346   4.3411   4.5581
     4.7107   4.8031   4.8208   4.8513   4.9193   4.9590   4.9694   5.1183
     7.2410   7.2934   7.4930   7.5493   7.6536   7.6827   7.7045   7.7290
     7.8400   7.9140   7.9933   8.0040   8.2845   8.2873   8.3944   8.4697
     9.5066   9.6857   9.8127  10.0617  11.0987  11.6080  13.3106  13.3779
    14.0458  14.2380  14.4151  14.5272  14.5651

     occupation numbers 
     1.0000   1.0000   1.0000   1.0000   1.0000   1.0000   1.0000   1.0000
     1.0000   1.0000   1.0000   1.0000   1.0000   1.0000   1.0000   1.0000
     1.0000   1.0000   1.0000   1.0000   1.0000   1.0000   1.0000   1.0000
     1.0000   1.0000   1.0000   1.0000   1.0000   1.0000   1.0000   1.0000
     1.0000   1.0000   1.0000   1.0000   1.0000   1.0000   1.0000   1.0000
     1.0000   1.0000   1.0000   1.0000   1.0000   1.0000   1.0000   1.0000
     1.0000   1.0000   1.0000   1.0000   1.0000   1.0000   1.0000   1.0000
     1.0000   1.0000   1.0000   1.0000   1.0000   1.0000   1.0000   1.0000
     1.0000   1.0000   1.0000   1.0000   1.0000   1.0000   1.0000   1.0000
     1.0000   1.0000   1.0000   1.0000   1.0000   1.0000   1.0000   1.0000
     1.0000   1.0000   1.0000   1.0000   1.0000   1.0000   1.0000   1.0000
     1.0000   1.0000   1.0000   1.0000   1.0000   1.0000   1.0000   1.0000
     1.0000   1.0000   1.0000   1.0000   1.0000   1.0000   1.0000   1.0001
     1.0006   1.0021   1.0067   1.0077   1.0791   1.0796   1.0627   0.9819
     0.0000   0.0000   0.0000   0.0000   0.0000   0.0000   0.0000   0.0000
     0.0000   0.0000   0.0000   0.0000   0.0000

          k = 0.0000 0.1095 0.0000 ( 13007 PWs)   bands (ev):

   -64.0121 -64.0121 -64.0110 -64.0110 -43.0942 -43.0941 -43.0941 -43.0941
   -35.6475 -35.6473 -35.6420 -35.6418 -35.6309 -35.6309 -35.6151 -35.6151
   -35.2585 -35.2584 -35.2532 -35.2532 -15.2691 -15.2641 -15.2491 -15.2376
   -15.2335 -15.2313 -15.2045 -15.2016 -15.1979 -15.1926 -15.1861 -15.1860
   -14.6665 -14.4196 -14.4014 -14.3241 -12.3905 -12.1273 -12.0665 -12.0583
   -12.0228 -11.9231 -11.8986 -11.8198 -11.7510 -11.7215 -11.6678 -11.6626
    -2.5585  -2.0189  -1.9632  -1.6189  -0.4325  -0.1795  -0.0973   0.1367
     0.2928   0.3288   0.4311   0.5937   0.7489   0.8573   0.9425   0.9457
     1.5920   1.8761   2.0383   2.1403   2.3855   2.5318   2.5364   2.8011
     2.8118   2.8788   2.9153   3.0732   3.0762   3.1284   3.3664   3.3782
     3.8555   3.8765   3.8959   3.9489   4.1488   4.1542   4.4217   4.6420
     4.6826   4.7228   4.7443   4.7976   4.8488   4.9570   5.1797   5.1888
     7.2250   7.3822   7.4441   7.5890   7.6070   7.6441   7.6787   7.7639
     7.8333   7.9626   7.9699   7.9956   8.2905   8.2910   8.3015   8.5332
     9.3643   9.5491   9.8626  10.3010  10.7056  12.4098  13.1678  13.3680
    13.9905  14.0440  14.3702  14.5045  14.5711

     occupation numbers 
     1.0000   1.0000   1.0000   1.0000   1.0000   1.0000   1.0000   1.0000
     1.0000   1.0000   1.0000   1.0000   1.0000   1.0000   1.0000   1.0000
     1.0000   1.0000   1.0000   1.0000   1.0000   1.0000   1.0000   1.0000
     1.0000   1.0000   1.0000   1.0000   1.0000   1.0000   1.0000   1.0000
     1.0000   1.0000   1.0000   1.0000   1.0000   1.0000   1.0000   1.0000
     1.0000   1.0000   1.0000   1.0000   1.0000   1.0000   1.0000   1.0000
     1.0000   1.0000   1.0000   1.0000   1.0000   1.0000   1.0000   1.0000
     1.0000   1.0000   1.0000   1.0000   1.0000   1.0000   1.0000   1.0000
     1.0000   1.0000   1.0000   1.0000   1.0000   1.0000   1.0000   1.0000
     1.0000   1.0000   1.0000   1.0000   1.0000   1.0000   1.0000   1.0000
     1.0000   1.0000   1.0000   1.0000   1.0000   1.0000   1.0000   1.0000
     1.0000   1.0000   1.0000   1.0000   1.0000   1.0000   1.0000   1.0000
     1.0000   1.0000   1.0000   1.0000   1.0000   1.0000   1.0000   1.0001
     1.0005   1.0044   1.0049   1.0069   1.0802   1.0803   1.0819   0.8606
     0.0000   0.0000   0.0000   0.0000   0.0000   0.0000   0.0000   0.0000
     0.0000   0.0000   0.0000   0.0000   0.0000

          k = 0.0000 0.1095 0.1215 ( 12989 PWs)   bands (ev):

   -64.0121 -64.0121 -64.0110 -64.0110 -43.0942 -43.0941 -43.0941 -43.0941
   -35.6475 -35.6473 -35.6420 -35.6419 -35.6309 -35.6309 -35.6151 -35.6151
   -35.2585 -35.2584 -35.2532 -35.2532 -15.2664 -15.2585 -15.2492 -15.2377
   -15.2350 -15.2298 -15.2109 -15.2069 -15.1993 -15.1937 -15.1852 -15.1843
   -14.6436 -14.4452 -14.3932 -14.3301 -12.3572 -12.1219 -12.0917 -12.0710
   -12.0151 -11.9438 -11.8790 -11.8235 -11.7489 -11.7251 -11.6668 -11.6627
    -2.4929  -2.0392  -1.9580  -1.7023  -0.3952  -0.1414  -0.0415   0.0443
     0.3235   0.3512   0.4297   0.5613   0.7107   0.8365   0.8773   0.9197
     1.6360   1.9382   1.9741   2.2258   2.4640   2.4645   2.6380   2.7323
     2.8361   2.9079   2.9188   2.9870   3.0596   3.1673   3.3797   3.4496
     3.8169   3.8271   3.8709   3.9732   4.1402   4.1648   4.3798   4.6477
     4.6795   4.7525   4.7880   4.8048   4.8557   4.9388   5.0586   5.2107
     7.2406   7.3681   7.4611   7.5880   7.6221   7.6390   7.7121   7.7522
     7.8148   7.9449   7.9755   7.9955   8.2814   8.2975   8.3232   8.5136
     9.4066   9.6061   9.8158  10.2174  10.8374  12.1957  13.2104  13.3484
    13.9730  14.1295  14.4302  14.4562  14.5257

     occupation numbers 
     1.0000   1.0000   1.0000   1.0000   1.0000   1.0000   1.0000   1.0000
     1.0000   1.0000   1.0000   1.0000   1.0000   1.0000   1.0000   1.0000
     1.0000   1.0000   1.0000   1.0000   1.0000   1.0000   1.0000   1.0000
     1.0000   1.0000   1.0000   1.0000   1.0000   1.0000   1.0000   1.0000
     1.0000   1.0000   1.0000   1.0000   1.0000   1.0000   1.0000   1.0000
     1.0000   1.0000   1.0000   1.0000   1.0000   1.0000   1.0000   1.0000
     1.0000   1.0000   1.0000   1.0000   1.0000   1.0000   1.0000   1.0000
     1.0000   1.0000   1.0000   1.0000   1.0000   1.0000   1.0000   1.0000
     1.0000   1.0000   1.0000   1.0000   1.0000   1.0000   1.0000   1.0000
     1.0000   1.0000   1.0000   1.0000   1.0000   1.0000   1.0000   1.0000
     1.0000   1.0000   1.0000   1.0000   1.0000   1.0000   1.0000   1.0000
     1.0000   1.0000   1.0000   1.0000   1.0000   1.0000   1.0000   1.0000
     1.0000   1.0000   1.0000   1.0000   1.0000   1.0000   1.0001   1.0001
     1.0004   1.0034   1.0053   1.0069   1.0784   1.0814   1.0833   0.9029
     0.0000   0.0000   0.0000   0.0000   0.0000   0.0000   0.0000   0.0000
     0.0000   0.0000   0.0000   0.0000   0.0000

          k = 0.0000 0.1095 0.2431 ( 12976 PWs)   bands (ev):

   -64.0121 -64.0121 -64.0110 -64.0110 -43.0941 -43.0941 -43.0941 -43.0941
   -35.6474 -35.6474 -35.6419 -35.6419 -35.6309 -35.6309 -35.6151 -35.6151
   -35.2584 -35.2584 -35.2532 -35.2532 -15.2584 -15.2510 -15.2447 -15.2380
   -15.2371 -15.2271 -15.2266 -15.2187 -15.1980 -15.1959 -15.1840 -15.1834
   -14.5838 -14.5088 -14.3723 -14.3480 -12.2722 -12.1708 -12.1076 -12.0889
   -11.9965 -11.9718 -11.8544 -11.8352 -11.7426 -11.7335 -11.6648 -11.6634
    -2.3204  -2.1298  -1.9348  -1.8575  -0.2895  -0.1466  -0.0097   0.0407
     0.2909   0.3376   0.4975   0.5767   0.6341   0.7334   0.8153   0.8518
     1.7436   1.8675   2.0925   2.2860   2.3799   2.5670   2.6281   2.7895
     2.9167   2.9213   2.9519   2.9776   3.0251   3.1708   3.3968   3.4926
     3.6654   3.7491   3.8703   3.9128   4.2076   4.2442   4.3680   4.5448
     4.7251   4.7684   4.8004   4.8802   4.8840   4.9126   4.9657   5.1263
     7.2814   7.3303   7.5037   7.5546   7.6614   7.6642   7.7240   7.7321
     7.8205   7.8933   7.9841   7.9920   8.2830   8.2895   8.3847   8.4580
     9.5237   9.6802   9.7767  10.0099  11.2114  11.7199  13.2726  13.3071
    14.0196  14.1630  14.4167  14.4984  14.5644

     occupation numbers 
     1.0000   1.0000   1.0000   1.0000   1.0000   1.0000   1.0000   1.0000
     1.0000   1.0000   1.0000   1.0000   1.0000   1.0000   1.0000   1.0000
     1.0000   1.0000   1.0000   1.0000   1.0000   1.0000   1.0000   1.0000
     1.0000   1.0000   1.0000   1.0000   1.0000   1.0000   1.0000   1.0000
     1.0000   1.0000   1.0000   1.0000   1.0000   1.0000   1.0000   1.0000
     1.0000   1.0000   1.0000   1.0000   1.0000   1.0000   1.0000   1.0000
     1.0000   1.0000   1.0000   1.0000   1.0000   1.0000   1.0000   1.0000
     1.0000   1.0000   1.0000   1.0000   1.0000   1.0000   1.0000   1.0000
     1.0000   1.0000   1.0000   1.0000   1.0000   1.0000   1.0000   1.0000
     1.0000   1.0000   1.0000   1.0000   1.0000   1.0000   1.0000   1.0000
     1.0000   1.0000   1.0000   1.0000   1.0000   1.0000   1.0000   1.0000
     1.0000   1.0000   1.0000   1.0000   1.0000   1.0000   1.0000   1.0000
     1.0000   1.0000   1.0000   1.0000   1.0000   1.0000   1.0001   1.0001
     1.0004   1.0015   1.0059   1.0066   1.0788   1.0801   1.0683   0.9990
     0.0000   0.0000   0.0000   0.0000   0.0000   0.0000   0.0000   0.0000
     0.0000   0.0000   0.0000   0.0000   0.0000

          k = 0.0000 0.2189 0.0000 ( 12990 PWs)   bands (ev):

   -64.0119 -64.0119 -64.0112 -64.0112 -43.0941 -43.0941 -43.0941 -43.0941
   -35.6463 -35.6461 -35.6426 -35.6424 -35.6289 -35.6288 -35.6178 -35.6178
   -35.2577 -35.2576 -35.2540 -35.2540 -15.2737 -15.2705 -15.2476 -15.2384
   -15.2340 -15.2323 -15.2109 -15.2059 -15.1979 -15.1963 -15.1919 -15.1876
   -14.6129 -14.4313 -14.3934 -14.3273 -12.3578 -12.1791 -12.0609 -12.0567
   -11.9982 -11.9159 -11.9036 -11.8590 -11.7369 -11.7111 -11.6752 -11.6747
    -2.4812  -2.0737  -1.9634  -1.6921  -0.3343  -0.1229  -0.0932   0.1462
     0.2540   0.3227   0.3617   0.6204   0.6627   0.8776   0.8782   0.9319
     1.8378   1.9651   2.1206   2.1671   2.2917   2.5033   2.5314   2.6865
     2.7955   2.7968   2.8841   3.1657   3.1673   3.1925   3.3719   3.4326
     3.7246   3.7690   3.8688   3.9071   4.2259   4.3160   4.4147   4.6017
     4.6086   4.6493   4.6778   4.7813   4.7845   4.8348   5.2198   5.2338
     7.3319   7.4701   7.4983   7.5758   7.6339   7.6687   7.6953   7.7339
     7.8264   7.9134   7.9379   7.9400   8.2691   8.2863   8.3448   8.5046
     9.4856   9.5499   9.8051  10.1318  10.9844  12.6224  12.7376  13.4436
    14.0824  14.1454  14.3673  14.3934  14.4656

     occupation numbers 
     1.0000   1.0000   1.0000   1.0000   1.0000   1.0000   1.0000   1.0000
     1.0000   1.0000   1.0000   1.0000   1.0000   1.0000   1.0000   1.0000
     1.0000   1.0000   1.0000   1.0000   1.0000   1.0000   1.0000   1.0000
     1.0000   1.0000   1.0000   1.0000   1.0000   1.0000   1.0000   1.0000
     1.0000   1.0000   1.0000   1.0000   1.0000   1.0000   1.0000   1.0000
     1.0000   1.0000   1.0000   1.0000   1.0000   1.0000   1.0000   1.0000
     1.0000   1.0000   1.0000   1.0000   1.0000   1.0000   1.0000   1.0000
     1.0000   1.0000   1.0000   1.0000   1.0000   1.0000   1.0000   1.0000
     1.0000   1.0000   1.0000   1.0000   1.0000   1.0000   1.0000   1.0000
     1.0000   1.0000   1.0000   1.0000   1.0000   1.0000   1.0000   1.0000
     1.0000   1.0000   1.0000   1.0000   1.0000   1.0000   1.0000   1.0000
     1.0000   1.0000   1.0000   1.0000   1.0000   1.0000   1.0000   1.0000
     1.0000   1.0000   1.0000   1.0000   1.0000   1.0000   1.0000   1.0001
     1.0005   1.0021   1.0031   1.0032   1.0755   1.0794   1.0817   0.9210
     0.0000   0.0000   0.0000   0.0000   0.0000   0.0000   0.0000   0.0000
     0.0000   0.0000   0.0000   0.0000   0.0000

          k = 0.0000 0.2189 0.1215 ( 12995 PWs)   bands (ev):

   -64.0119 -64.0119 -64.0112 -64.0112 -43.0941 -43.0941 -43.0941 -43.0941
   -35.6463 -35.6461 -35.6426 -35.6424 -35.6289 -35.6288 -35.6178 -35.6178
   -35.2577 -35.2577 -35.2540 -35.2540 -15.2704 -15.2654 -15.2478 -15.2384
   -15.2352 -15.2317 -15.2182 -15.2143 -15.1978 -15.1926 -15.1911 -15.1873
   -14.5926 -14.4207 -14.4159 -14.3363 -12.3282 -12.1692 -12.0857 -12.0758
   -11.9885 -11.9305 -11.8905 -11.8598 -11.7349 -11.7141 -11.6749 -11.6744
    -2.4232  -2.0572  -1.9928  -1.7646  -0.3015  -0.0702  -0.0629   0.0912
     0.2687   0.3497   0.3577   0.5836   0.6453   0.8472   0.8512   0.8740
     1.8573   2.0150   2.0554   2.2838   2.3593   2.5006   2.5811   2.6111
     2.7878   2.7970   2.8941   3.0794   3.1728   3.2080   3.3952   3.4453
     3.6675   3.7551   3.8782   3.9261   4.2460   4.3068   4.3920   4.5882
     4.6473   4.6872   4.7411   4.7771   4.7917   4.8270   5.1181   5.2284
     7.3451   7.4541   7.5121   7.5824   7.6445   7.6448   7.7234   7.7286
     7.8052   7.8966   7.9451   7.9475   8.2676   8.3083   8.3324   8.4823
     9.5088   9.5851   9.7645  10.0627  11.1309  12.4933  12.7074  13.3880
    14.1334  14.1385  14.3291  14.4155  14.4866

     occupation numbers 
     1.0000   1.0000   1.0000   1.0000   1.0000   1.0000   1.0000   1.0000
     1.0000   1.0000   1.0000   1.0000   1.0000   1.0000   1.0000   1.0000
     1.0000   1.0000   1.0000   1.0000   1.0000   1.0000   1.0000   1.0000
     1.0000   1.0000   1.0000   1.0000   1.0000   1.0000   1.0000   1.0000
     1.0000   1.0000   1.0000   1.0000   1.0000   1.0000   1.0000   1.0000
     1.0000   1.0000   1.0000   1.0000   1.0000   1.0000   1.0000   1.0000
     1.0000   1.0000   1.0000   1.0000   1.0000   1.0000   1.0000   1.0000
     1.0000   1.0000   1.0000   1.0000   1.0000   1.0000   1.0000   1.0000
     1.0000   1.0000   1.0000   1.0000   1.0000   1.0000   1.0000   1.0000
     1.0000   1.0000   1.0000   1.0000   1.0000   1.0000   1.0000   1.0000
     1.0000   1.0000   1.0000   1.0000   1.0000   1.0000   1.0000   1.0000
     1.0000   1.0000   1.0000   1.0000   1.0000   1.0000   1.0000   1.0000
     1.0000   1.0000   1.0000   1.0000   1.0000   1.0000   1.0001   1.0001
     1.0003   1.0016   1.0034   1.0035   1.0752   1.0826   1.0830   0.9616
     0.0000   0.0000   0.0000   0.0000   0.0000   0.0000   0.0000   0.0000
     0.0000   0.0000   0.0000   0.0000   0.0000

          k = 0.0000 0.2189 0.2431 ( 12985 PWs)   bands (ev):

   -64.0119 -64.0119 -64.0112 -64.0112 -43.0941 -43.0941 -43.0941 -43.0941
   -35.6462 -35.6462 -35.6425 -35.6425 -35.6288 -35.6288 -35.6178 -35.6178
   -35.2577 -35.2577 -35.2540 -35.2540 -15.2607 -15.2525 -15.2508 -15.2387
   -15.2369 -15.2346 -15.2304 -15.2253 -15.1960 -15.1942 -15.1879 -15.1870
   -14.5393 -14.4723 -14.3936 -14.3612 -12.2520 -12.1597 -12.1428 -12.1083
   -11.9700 -11.9501 -11.8754 -11.8646 -11.7293 -11.7214 -11.6743 -11.6740
    -2.2700  -2.0937  -2.0068  -1.9095  -0.2113  -0.1018   0.0602   0.0939
     0.2337   0.2740   0.4496   0.5343   0.6478   0.7478   0.7970   0.7988
     1.9081   1.9730   2.1652   2.3398   2.4226   2.5389   2.5461   2.7201
     2.7934   2.8091   2.8201   3.0710   3.1271   3.1277   3.3904   3.4178
     3.6824   3.7241   3.9006   3.9259   4.2880   4.2933   4.4180   4.5190
     4.7111   4.7378   4.7730   4.8040   4.8119   4.9393   4.9470   5.1190
     7.3791   7.4201   7.5413   7.5764   7.6358   7.6558   7.7157   7.7494
     7.7975   7.8545   7.9541   7.9558   8.2793   8.3046   8.3581   8.4246
     9.5740   9.6659   9.7103   9.8926  11.5127  12.0106  12.9157  13.1691
    14.1386  14.1561  14.4549  14.5048  14.5510

     occupation numbers 
     1.0000   1.0000   1.0000   1.0000   1.0000   1.0000   1.0000   1.0000
     1.0000   1.0000   1.0000   1.0000   1.0000   1.0000   1.0000   1.0000
     1.0000   1.0000   1.0000   1.0000   1.0000   1.0000   1.0000   1.0000
     1.0000   1.0000   1.0000   1.0000   1.0000   1.0000   1.0000   1.0000
     1.0000   1.0000   1.0000   1.0000   1.0000   1.0000   1.0000   1.0000
     1.0000   1.0000   1.0000   1.0000   1.0000   1.0000   1.0000   1.0000
     1.0000   1.0000   1.0000   1.0000   1.0000   1.0000   1.0000   1.0000
     1.0000   1.0000   1.0000   1.0000   1.0000   1.0000   1.0000   1.0000
     1.0000   1.0000   1.0000   1.0000   1.0000   1.0000   1.0000   1.0000
     1.0000   1.0000   1.0000   1.0000   1.0000   1.0000   1.0000   1.0000
     1.0000   1.0000   1.0000   1.0000   1.0000   1.0000   1.0000   1.0000
     1.0000   1.0000   1.0000   1.0000   1.0000   1.0000   1.0000   1.0000
     1.0000   1.0000   1.0000   1.0000   1.0000   1.0000   1.0001   1.0001
     1.0003   1.0008   1.0039   1.0040   1.0780   1.0823   1.0788   1.0385
     0.0000   0.0000   0.0000   0.0000   0.0000   0.0000   0.0000   0.0000
     0.0000   0.0000   0.0000   0.0000   0.0000

          k = 0.0000 0.3284 0.0000 ( 13002 PWs)   bands (ev):

   -64.0117 -64.0117 -64.0114 -64.0114 -43.0941 -43.0941 -43.0941 -43.0941
   -35.6448 -35.6447 -35.6435 -35.6434 -35.6256 -35.6255 -35.6216 -35.6215
   -35.2565 -35.2565 -35.2552 -35.2552 -15.2772 -15.2761 -15.2446 -15.2408
   -15.2340 -15.2333 -15.2159 -15.2147 -15.1981 -15.1981 -15.1907 -15.1893
   -14.5454 -14.4809 -14.3630 -14.3394 -12.3067 -12.2437 -12.0553 -12.0535
   -11.9611 -11.9114 -11.9111 -11.9080 -11.7164 -11.6980 -11.6943 -11.6852
    -2.3623  -2.2181  -1.8814  -1.7860  -0.2341  -0.1653   0.0342   0.1699
     0.1795   0.2103   0.4343   0.5470   0.6836   0.7775   0.9000   0.9182
     2.0550   2.1291   2.1311   2.3020   2.3057   2.3807   2.4321   2.5576
     2.7015   2.7604   2.9402   3.0773   3.2738   3.3344   3.3930   3.4352
     3.6979   3.7283   3.8081   3.8195   4.3285   4.3949   4.4319   4.4961
     4.5834   4.6023   4.6548   4.7252   4.7447   4.7498   5.2483   5.2540
     7.4526   7.5386   7.5753   7.5786   7.6349   7.6732   7.6891   7.6981
     7.8349   7.8733   7.8760   7.8949   8.2646   8.2750   8.3981   8.4549
     9.6005   9.6773   9.7003   9.9078  11.4462  12.0182  13.1570  13.4479
    14.0789  14.1601  14.2687  14.3385  14.3387

     occupation numbers 
     1.0000   1.0000   1.0000   1.0000   1.0000   1.0000   1.0000   1.0000
     1.0000   1.0000   1.0000   1.0000   1.0000   1.0000   1.0000   1.0000
     1.0000   1.0000   1.0000   1.0000   1.0000   1.0000   1.0000   1.0000
     1.0000   1.0000   1.0000   1.0000   1.0000   1.0000   1.0000   1.0000
     1.0000   1.0000   1.0000   1.0000   1.0000   1.0000   1.0000   1.0000
     1.0000   1.0000   1.0000   1.0000   1.0000   1.0000   1.0000   1.0000
     1.0000   1.0000   1.0000   1.0000   1.0000   1.0000   1.0000   1.0000
     1.0000   1.0000   1.0000   1.0000   1.0000   1.0000   1.0000   1.0000
     1.0000   1.0000   1.0000   1.0000   1.0000   1.0000   1.0000   1.0000
     1.0000   1.0000   1.0000   1.0000   1.0000   1.0000   1.0000   1.0000
     1.0000   1.0000   1.0000   1.0000   1.0000   1.0000   1.0000   1.0000
     1.0000   1.0000   1.0000   1.0000   1.0000   1.0000   1.0000   1.0000
     1.0000   1.0000   1.0000   1.0000   1.0000   1.0000   1.0000   1.0000
     1.0006   1.0011   1.0011   1.0016   1.0744   1.0770   1.0603   1.0032
     0.0000   0.0000   0.0000   0.0000   0.0000   0.0000   0.0000   0.0000
     0.0000   0.0000   0.0000   0.0000   0.0000

          k = 0.0000 0.3284 0.1215 ( 12979 PWs)   bands (ev):

   -64.0117 -64.0117 -64.0114 -64.0114 -43.0941 -43.0941 -43.0941 -43.0941
   -35.6448 -35.6447 -35.6435 -35.6434 -35.6256 -35.6255 -35.6216 -35.6215
   -35.2565 -35.2565 -35.2552 -35.2552 -15.2732 -15.2716 -15.2449 -15.2408
   -15.2347 -15.2335 -15.2235 -15.2218 -15.1965 -15.1946 -15.1911 -15.1894
   -14.5282 -14.4672 -14.3811 -14.3527 -12.2828 -12.2269 -12.0796 -12.0770
   -11.9527 -11.9173 -11.9073 -11.9041 -11.7149 -11.7000 -11.6934 -11.6860
    -2.3163  -2.1868  -1.9243  -1.8441  -0.1968  -0.1133   0.0368   0.1416
     0.1813   0.2591   0.4184   0.5225   0.6655   0.7528   0.8600   0.8690
     2.1013   2.1388   2.1740   2.3019   2.3749   2.3940   2.4873   2.5695
     2.5993   2.6951   2.9718   3.1139   3.1934   3.3151   3.3167   3.4275
     3.7262   3.7435   3.8358   3.8386   4.3409   4.3934   4.4188   4.4976
     4.6506   4.6605   4.6761   4.7223   4.7493   4.7554   5.1749   5.2152
     7.4625   7.5478   7.5535   7.5918   7.6297   7.6669   7.6704   7.7007
     7.8343   7.8708   7.8854   7.9002   8.2697   8.2876   8.3784   8.4321
     9.6103   9.6697   9.6823   9.8660  11.5846  12.1342  12.8770  13.2306
    14.2083  14.2890  14.3105  14.3762  14.3876

     occupation numbers 
     1.0000   1.0000   1.0000   1.0000   1.0000   1.0000   1.0000   1.0000
     1.0000   1.0000   1.0000   1.0000   1.0000   1.0000   1.0000   1.0000
     1.0000   1.0000   1.0000   1.0000   1.0000   1.0000   1.0000   1.0000
     1.0000   1.0000   1.0000   1.0000   1.0000   1.0000   1.0000   1.0000
     1.0000   1.0000   1.0000   1.0000   1.0000   1.0000   1.0000   1.0000
     1.0000   1.0000   1.0000   1.0000   1.0000   1.0000   1.0000   1.0000
     1.0000   1.0000   1.0000   1.0000   1.0000   1.0000   1.0000   1.0000
     1.0000   1.0000   1.0000   1.0000   1.0000   1.0000   1.0000   1.0000
     1.0000   1.0000   1.0000   1.0000   1.0000   1.0000   1.0000   1.0000
     1.0000   1.0000   1.0000   1.0000   1.0000   1.0000   1.0000   1.0000
     1.0000   1.0000   1.0000   1.0000   1.0000   1.0000   1.0000   1.0000
     1.0000   1.0000   1.0000   1.0000   1.0000   1.0000   1.0000   1.0000
     1.0000   1.0000   1.0000   1.0000   1.0000   1.0000   1.0000   1.0000
     1.0006   1.0011   1.0013   1.0017   1.0757   1.0797   1.0715   1.0309
     0.0000   0.0000   0.0000   0.0000   0.0000   0.0000   0.0000   0.0000
     0.0000   0.0000   0.0000   0.0000   0.0000

          k = 0.0000 0.3284 0.2431 ( 12989 PWs)   bands (ev):

   -64.0117 -64.0117 -64.0114 -64.0114 -43.0941 -43.0941 -43.0941 -43.0941
   -35.6448 -35.6447 -35.6435 -35.6434 -35.6255 -35.6255 -35.6216 -35.6215
   -35.2565 -35.2565 -35.2552 -35.2552 -15.2622 -15.2596 -15.2495 -15.2450
   -15.2359 -15.2351 -15.2338 -15.2316 -15.1939 -15.1922 -15.1914 -15.1898
   -14.4834 -14.4316 -14.4274 -14.3878 -12.2208 -12.1828 -12.1440 -12.1266
   -11.9387 -11.9267 -11.9024 -11.9014 -11.7107 -11.7050 -11.6910 -11.6881
    -2.1931  -2.1002  -2.0398  -1.9752  -0.1060  -0.0124   0.0009   0.1042
     0.2252   0.3393   0.3507   0.4493   0.6809   0.7327   0.7640   0.7795
     2.1492   2.1516   2.2827   2.3651   2.3982   2.4422   2.4901   2.5818
     2.6225   2.6893   2.8267   2.9566   3.2034   3.2697   3.3168   3.3890
     3.7688   3.7717   3.8645   3.8698   4.3681   4.3932   4.4301   4.4800
     4.6776   4.6995   4.7196   4.7199   4.8358   4.8930   5.0166   5.0795
     7.4884   7.5218   7.5731   7.6046   7.6081   7.6330   7.6758   7.6896
     7.8444   7.8594   7.9015   7.9061   8.2920   8.3226   8.3335   8.3774
     9.6547   9.6558   9.6662   9.7654  11.9394  12.4021  12.4311  12.8219
    14.3084  14.3218  14.4376  14.4432  14.6152

     occupation numbers 
     1.0000   1.0000   1.0000   1.0000   1.0000   1.0000   1.0000   1.0000
     1.0000   1.0000   1.0000   1.0000   1.0000   1.0000   1.0000   1.0000
     1.0000   1.0000   1.0000   1.0000   1.0000   1.0000   1.0000   1.0000
     1.0000   1.0000   1.0000   1.0000   1.0000   1.0000   1.0000   1.0000
     1.0000   1.0000   1.0000   1.0000   1.0000   1.0000   1.0000   1.0000
     1.0000   1.0000   1.0000   1.0000   1.0000   1.0000   1.0000   1.0000
     1.0000   1.0000   1.0000   1.0000   1.0000   1.0000   1.0000   1.0000
     1.0000   1.0000   1.0000   1.0000   1.0000   1.0000   1.0000   1.0000
     1.0000   1.0000   1.0000   1.0000   1.0000   1.0000   1.0000   1.0000
     1.0000   1.0000   1.0000   1.0000   1.0000   1.0000   1.0000   1.0000
     1.0000   1.0000   1.0000   1.0000   1.0000   1.0000   1.0000   1.0000
     1.0000   1.0000   1.0000   1.0000   1.0000   1.0000   1.0000   1.0000
     1.0000   1.0000   1.0000   1.0000   1.0000   1.0000   1.0000   1.0000
     1.0007   1.0009   1.0017   1.0019   1.0805   1.0833   1.0830   1.0719
     0.0000   0.0000   0.0000   0.0000   0.0000   0.0000   0.0000   0.0000
     0.0000   0.0000   0.0000   0.0000   0.0000

          k = 0.1250 0.0000 0.0000 ( 12993 PWs)   bands (ev):

   -64.0121 -64.0121 -64.0110 -64.0110 -43.0942 -43.0941 -43.0941 -43.0940
   -35.6480 -35.6478 -35.6418 -35.6417 -35.6316 -35.6316 -35.6142 -35.6141
   -35.2587 -35.2587 -35.2529 -35.2529 -15.2723 -15.2679 -15.2531 -15.2461
   -15.2362 -15.2332 -15.2008 -15.2007 -15.1984 -15.1925 -15.1857 -15.1801
   -14.6588 -14.4216 -14.3870 -14.3243 -12.3895 -12.1074 -12.0732 -12.0573
   -12.0270 -11.9276 -11.8958 -11.8124 -11.7622 -11.7242 -11.6816 -11.6629
    -2.5310  -2.0841  -1.8503  -1.6367  -0.4724  -0.1955  -0.0736   0.1547
     0.2488   0.3795   0.4235   0.5560   0.6871   0.8920   0.9210   1.0120
     1.6418   1.8404   2.0155   2.1535   2.3357   2.5091   2.6485   2.8197
     2.8322   2.9206   2.9710   3.0177   3.0246   3.0893   3.3386   3.5033
     3.7373   3.7621   3.8597   4.0405   4.0961   4.1301   4.4420   4.6298
     4.6626   4.7316   4.8227   4.8502   4.8582   5.0229   5.0936   5.1151
     7.1760   7.3320   7.4407   7.5912   7.6320   7.6341   7.7129   7.7645
     7.8372   7.9704   7.9951   8.0191   8.2731   8.2795   8.3459   8.5641
     9.3132   9.5774   9.8395  10.3309  10.7426  12.4906  13.3443  13.4847
    14.0027  14.0467  14.3272  14.4273  14.6309

     occupation numbers 
     1.0000   1.0000   1.0000   1.0000   1.0000   1.0000   1.0000   1.0000
     1.0000   1.0000   1.0000   1.0000   1.0000   1.0000   1.0000   1.0000
     1.0000   1.0000   1.0000   1.0000   1.0000   1.0000   1.0000   1.0000
     1.0000   1.0000   1.0000   1.0000   1.0000   1.0000   1.0000   1.0000
     1.0000   1.0000   1.0000   1.0000   1.0000   1.0000   1.0000   1.0000
     1.0000   1.0000   1.0000   1.0000   1.0000   1.0000   1.0000   1.0000
     1.0000   1.0000   1.0000   1.0000   1.0000   1.0000   1.0000   1.0000
     1.0000   1.0000   1.0000   1.0000   1.0000   1.0000   1.0000   1.0000
     1.0000   1.0000   1.0000   1.0000   1.0000   1.0000   1.0000   1.0000
     1.0000   1.0000   1.0000   1.0000   1.0000   1.0000   1.0000   1.0000
     1.0000   1.0000   1.0000   1.0000   1.0000   1.0000   1.0000   1.0000
     1.0000   1.0000   1.0000   1.0000   1.0000   1.0000   1.0000   1.0000
     1.0000   1.0000   1.0000   1.0000   1.0000   1.0000   1.0001   1.0001
     1.0006   1.0049   1.0069   1.0094   1.0765   1.0780   1.0815   0.7869
     0.0001   0.0000   0.0000   0.0000   0.0000   0.0000   0.0000   0.0000
     0.0000   0.0000   0.0000   0.0000   0.0000

          k = 0.1250 0.0000 0.1215 ( 13020 PWs)   bands (ev):

   -64.0121 -64.0121 -64.0110 -64.0110 -43.0942 -43.0941 -43.0941 -43.0940
   -35.6479 -35.6478 -35.6418 -35.6417 -35.6316 -35.6316 -35.6141 -35.6141
   -35.2587 -35.2587 -35.2529 -35.2529 -15.2702 -15.2657 -15.2530 -15.2480
   -15.2358 -15.2299 -15.2056 -15.2032 -15.2001 -15.1937 -15.1847 -15.1804
   -14.6370 -14.4465 -14.3799 -14.3291 -12.3571 -12.1075 -12.0929 -12.0675
   -12.0211 -11.9488 -11.8761 -11.8168 -11.7600 -11.7304 -11.6769 -11.6633
    -2.4676  -2.0862  -1.8646  -1.7144  -0.4352  -0.1655  -0.0192   0.0144
     0.3586   0.3616   0.4041   0.5499   0.6703   0.8674   0.8888   0.9731
     1.6637   1.9019   1.9663   2.2200   2.3487   2.5971   2.6385   2.7601
     2.8612   2.9267   2.9502   3.0030   3.0554   3.0829   3.3798   3.5131
     3.7018   3.7370   3.8404   4.0030   4.1145   4.1484   4.4134   4.5969
     4.7101   4.7762   4.7834   4.8456   4.9099   4.9674   5.0045   5.1633
     7.1911   7.3176   7.4550   7.5871   7.6388   7.6416   7.7368   7.7552
     7.8195   7.9628   7.9975   8.0172   8.2690   8.2810   8.3678   8.5458
     9.3549   9.6405   9.7929  10.2485  10.8691  12.2582  13.3682  13.4883
    13.9486  14.1660  14.3360  14.4706  14.5664

     occupation numbers 
     1.0000   1.0000   1.0000   1.0000   1.0000   1.0000   1.0000   1.0000
     1.0000   1.0000   1.0000   1.0000   1.0000   1.0000   1.0000   1.0000
     1.0000   1.0000   1.0000   1.0000   1.0000   1.0000   1.0000   1.0000
     1.0000   1.0000   1.0000   1.0000   1.0000   1.0000   1.0000   1.0000
     1.0000   1.0000   1.0000   1.0000   1.0000   1.0000   1.0000   1.0000
     1.0000   1.0000   1.0000   1.0000   1.0000   1.0000   1.0000   1.0000
     1.0000   1.0000   1.0000   1.0000   1.0000   1.0000   1.0000   1.0000
     1.0000   1.0000   1.0000   1.0000   1.0000   1.0000   1.0000   1.0000
     1.0000   1.0000   1.0000   1.0000   1.0000   1.0000   1.0000   1.0000
     1.0000   1.0000   1.0000   1.0000   1.0000   1.0000   1.0000   1.0000
     1.0000   1.0000   1.0000   1.0000   1.0000   1.0000   1.0000   1.0000
     1.0000   1.0000   1.0000   1.0000   1.0000   1.0000   1.0000   1.0000
     1.0000   1.0000   1.0000   1.0000   1.0000   1.0000   1.0001   1.0001
     1.0004   1.0044   1.0071   1.0091   1.0755   1.0784   1.0758   0.8316
     0.0000   0.0000   0.0000   0.0000   0.0000   0.0000   0.0000   0.0000
     0.0000   0.0000   0.0000   0.0000   0.0000

          k = 0.1250 0.0000 0.2431 ( 12987 PWs)   bands (ev):

   -64.0121 -64.0121 -64.0110 -64.0110 -43.0941 -43.0941 -43.0940 -43.0940
   -35.6479 -35.6479 -35.6417 -35.6417 -35.6316 -35.6316 -35.6141 -35.6141
   -35.2587 -35.2587 -35.2529 -35.2529 -15.2647 -15.2616 -15.2545 -15.2522
   -15.2291 -15.2233 -15.2170 -15.2136 -15.1985 -15.1961 -15.1830 -15.1814
   -14.5797 -14.5077 -14.3628 -14.3433 -12.2742 -12.1752 -12.0921 -12.0797
   -12.0042 -11.9787 -11.8502 -11.8297 -11.7530 -11.7421 -11.6696 -11.6651
    -2.3025  -2.1345  -1.8887  -1.8551  -0.3290  -0.1698  -0.0701   0.0214
     0.3173   0.3685   0.4913   0.6032   0.6152   0.7544   0.8549   0.9012
     1.7438   1.8618   2.0609   2.2458   2.3677   2.5617   2.6944   2.8015
     2.8676   2.9716   3.0093   3.0296   3.0812   3.0898   3.3397   3.4133
     3.7008   3.7404   3.7831   3.8427   4.2005   4.2331   4.4221   4.5892
     4.6518   4.7752   4.7845   4.8094   4.9586   4.9720   4.9840   5.1113
     7.2306   7.2790   7.4955   7.5482   7.6713   7.6821   7.7242   7.7265
     7.8482   7.9202   8.0038   8.0115   8.2708   8.2776   8.4252   8.4940
     9.4784   9.6511   9.8137  10.0449  11.2408  11.7599  13.3950  13.4515
    14.0172  14.1788  14.4431  14.5410  14.5950

     occupation numbers 
     1.0000   1.0000   1.0000   1.0000   1.0000   1.0000   1.0000   1.0000
     1.0000   1.0000   1.0000   1.0000   1.0000   1.0000   1.0000   1.0000
     1.0000   1.0000   1.0000   1.0000   1.0000   1.0000   1.0000   1.0000
     1.0000   1.0000   1.0000   1.0000   1.0000   1.0000   1.0000   1.0000
     1.0000   1.0000   1.0000   1.0000   1.0000   1.0000   1.0000   1.0000
     1.0000   1.0000   1.0000   1.0000   1.0000   1.0000   1.0000   1.0000
     1.0000   1.0000   1.0000   1.0000   1.0000   1.0000   1.0000   1.0000
     1.0000   1.0000   1.0000   1.0000   1.0000   1.0000   1.0000   1.0000
     1.0000   1.0000   1.0000   1.0000   1.0000   1.0000   1.0000   1.0000
     1.0000   1.0000   1.0000   1.0000   1.0000   1.0000   1.0000   1.0000
     1.0000   1.0000   1.0000   1.0000   1.0000   1.0000   1.0000   1.0000
     1.0000   1.0000   1.0000   1.0000   1.0000   1.0000   1.0000   1.0000
     1.0000   1.0000   1.0000   1.0000   1.0000   1.0000   1.0001   1.0001
     1.0007   1.0023   1.0077   1.0085   1.0760   1.0776   1.0379   0.9409
     0.0000   0.0000   0.0000   0.0000   0.0000   0.0000   0.0000   0.0000
     0.0000   0.0000   0.0000   0.0000   0.0000

          k = 0.1250 0.1095 0.0000 ( 12989 PWs)   bands (ev):

   -64.0121 -64.0121 -64.0110 -64.0110 -43.0942 -43.0941 -43.0941 -43.0940
   -35.6475 -35.6473 -35.6420 -35.6418 -35.6309 -35.6309 -35.6151 -35.6151
   -35.2585 -35.2584 -35.2532 -35.2532 -15.2743 -15.2705 -15.2533 -15.2467
   -15.2371 -15.2343 -15.2027 -15.2010 -15.1984 -15.1921 -15.1863 -15.1853
   -14.6394 -14.4116 -14.3954 -14.3240 -12.3791 -12.1268 -12.0719 -12.0607
   -12.0164 -11.9234 -11.8984 -11.8283 -11.7569 -11.7203 -11.6816 -11.6667
    -2.5073  -2.0810  -1.8747  -1.6568  -0.4404  -0.1643  -0.0867   0.1460
     0.2461   0.3580   0.4005   0.5632   0.7218   0.8975   0.9141   0.9871
     1.6857   1.8727   2.0476   2.1467   2.3174   2.5132   2.6120   2.7393
     2.8338   2.9292   2.9365   3.0356   3.0842   3.1657   3.3674   3.4247
     3.6880   3.7486   3.8818   4.0030   4.1416   4.1878   4.4384   4.6127
     4.6541   4.7038   4.7907   4.8227   4.8229   4.9694   5.1290   5.1537
     7.2187   7.3665   7.4537   7.5820   7.6327   7.6520   7.7193   7.7554
     7.8324   7.9444   7.9811   8.0040   8.2721   8.3008   8.3310   8.5520
     9.3503   9.5825   9.8160  10.2851  10.8358  12.5991  13.2074  13.4039
    14.0541  14.0714  14.3078  14.3584  14.6046

     occupation numbers 
     1.0000   1.0000   1.0000   1.0000   1.0000   1.0000   1.0000   1.0000
     1.0000   1.0000   1.0000   1.0000   1.0000   1.0000   1.0000   1.0000
     1.0000   1.0000   1.0000   1.0000   1.0000   1.0000   1.0000   1.0000
     1.0000   1.0000   1.0000   1.0000   1.0000   1.0000   1.0000   1.0000
     1.0000   1.0000   1.0000   1.0000   1.0000   1.0000   1.0000   1.0000
     1.0000   1.0000   1.0000   1.0000   1.0000   1.0000   1.0000   1.0000
     1.0000   1.0000   1.0000   1.0000   1.0000   1.0000   1.0000   1.0000
     1.0000   1.0000   1.0000   1.0000   1.0000   1.0000   1.0000   1.0000
     1.0000   1.0000   1.0000   1.0000   1.0000   1.0000   1.0000   1.0000
     1.0000   1.0000   1.0000   1.0000   1.0000   1.0000   1.0000   1.0000
     1.0000   1.0000   1.0000   1.0000   1.0000   1.0000   1.0000   1.0000
     1.0000   1.0000   1.0000   1.0000   1.0000   1.0000   1.0000   1.0000
     1.0000   1.0000   1.0000   1.0000   1.0000   1.0000   1.0001   1.0001
     1.0005   1.0034   1.0057   1.0077   1.0763   1.0818   1.0831   0.8167
     0.0000   0.0000   0.0000   0.0000   0.0000   0.0000   0.0000   0.0000
     0.0000   0.0000   0.0000   0.0000   0.0000

          k = 0.1250 0.1095 0.1215 ( 13001 PWs)   bands (ev):

   -64.0121 -64.0121 -64.0110 -64.0110 -43.0942 -43.0941 -43.0941 -43.0940
   -35.6475 -35.6473 -35.6420 -35.6419 -35.6309 -35.6309 -35.6151 -35.6151
   -35.2585 -35.2584 -35.2532 -35.2532 -15.2720 -15.2680 -15.2536 -15.2489
   -15.2365 -15.2311 -15.2079 -15.2047 -15.1991 -15.1933 -15.1856 -15.1842
   -14.6185 -14.4355 -14.3875 -14.3297 -12.3479 -12.1226 -12.0946 -12.0734
   -12.0095 -11.9423 -11.8809 -11.8314 -11.7546 -11.7258 -11.6777 -11.6670
    -2.4461  -2.0818  -1.8888  -1.7328  -0.4040  -0.1474  -0.0234   0.0351
     0.3221   0.3377   0.4033   0.5576   0.6932   0.8676   0.8903   0.9491
     1.7080   1.9296   1.9847   2.2317   2.3465   2.5882   2.5934   2.7231
     2.8508   2.8940   2.9321   3.0208   3.0912   3.1520   3.3898   3.4502
     3.6418   3.7613   3.8545   3.9665   4.1603   4.2047   4.4141   4.5947
     4.6814   4.7509   4.7818   4.8055   4.8709   4.9586   5.0131   5.1858
     7.2331   7.3525   7.4680   7.5838   7.6353   7.6500   7.7449   7.7525
     7.8076   7.9401   7.9830   8.0020   8.2712   8.2961   8.3539   8.5328
     9.3909   9.6311   9.7722  10.2049  10.9702  12.3568  13.2558  13.4133
    14.0066  14.1590  14.3178  14.4103  14.4953

     occupation numbers 
     1.0000   1.0000   1.0000   1.0000   1.0000   1.0000   1.0000   1.0000
     1.0000   1.0000   1.0000   1.0000   1.0000   1.0000   1.0000   1.0000
     1.0000   1.0000   1.0000   1.0000   1.0000   1.0000   1.0000   1.0000
     1.0000   1.0000   1.0000   1.0000   1.0000   1.0000   1.0000   1.0000
     1.0000   1.0000   1.0000   1.0000   1.0000   1.0000   1.0000   1.0000
     1.0000   1.0000   1.0000   1.0000   1.0000   1.0000   1.0000   1.0000
     1.0000   1.0000   1.0000   1.0000   1.0000   1.0000   1.0000   1.0000
     1.0000   1.0000   1.0000   1.0000   1.0000   1.0000   1.0000   1.0000
     1.0000   1.0000   1.0000   1.0000   1.0000   1.0000   1.0000   1.0000
[...]
     atom    6 type  1   force =     0.00000000    0.00000000    0.00000000
     atom    7 type  1   force =     0.00000000    0.00000000    0.00000000
     atom    8 type  1   force =     0.00000000    0.00000000    0.00000000
     atom    9 type  4   force =     0.02650503    0.00000000    0.09732493
     atom   10 type  4   force =    -0.02650503    0.00000000    0.09732493
     atom   11 type  4   force =    -0.02650503    0.00000000   -0.09732493
     atom   12 type  4   force =     0.02650503    0.00000000   -0.09732493
     atom   13 type  3   force =     0.10051200    0.00000000    1.11786809
     atom   14 type  3   force =     0.10051200    0.00000000   -1.11786809
     atom   15 type  3   force =    -0.10051200    0.00000000   -1.11786809
     atom   16 type  3   force =    -0.10051200    0.00000000    1.11786809
     atom   17 type  3   force =     1.50138802    0.00000000   -0.65442771
     atom   18 type  3   force =     1.50138802    0.00000000    0.65442771
     atom   19 type  3   force =    -1.50138802    0.00000000    0.65442771
     atom   20 type  3   force =    -1.50138802    0.00000000   -0.65442771
     atom   21 type  3   force =    -0.46597332   -1.29385215    0.08136080
     atom   22 type  3   force =    -0.46597332    1.29385215   -0.08136080
     atom   23 type  3   force =     0.46597332   -1.29385215   -0.08136080
     atom   24 type  3   force =     0.46597332    1.29385215    0.08136080
     atom   25 type  3   force =     0.46597332    1.29385215   -0.08136080
     atom   26 type  3   force =     0.46597332   -1.29385215    0.08136080
     atom   27 type  3   force =    -0.46597332    1.29385215    0.08136080
     atom   28 type  3   force =    -0.46597332   -1.29385215   -0.08136080
     The ionic contribution  to forces
     atom    1 type  2   force =     2.97117280    0.00000000   -0.55131218
     atom    2 type  2   force =    -2.97117280   -0.00000000    0.55131218
     atom    3 type  2   force =     2.97117280    0.00000000    0.55131218
     atom    4 type  2   force =    -2.97117280    0.00000000   -0.55131218
     atom    5 type  1   force =    -0.00000000   -0.00000000   -0.00000000
     atom    6 type  1   force =     0.00000000    0.00000000    0.00000000
     atom    7 type  1   force =    -0.00000000   -0.00000000   -0.00000000
     atom    8 type  1   force =     0.00000000   -0.00000000    0.00000000
     atom    9 type  4   force =    -0.69024362    0.00000000   -0.81354070
     atom   10 type  4   force =     0.69024362    0.00000000   -0.81354070
     atom   11 type  4   force =     0.69024362    0.00000000    0.81354070
     atom   12 type  4   force =    -0.69024362    0.00000000    0.81354070
     atom   13 type  3   force =    -2.19346127    0.00000000    0.49142720
     atom   14 type  3   force =    -2.19346127    0.00000000   -0.49142720
     atom   15 type  3   force =     2.19346127    0.00000000   -0.49142720
     atom   16 type  3   force =     2.19346127    0.00000000    0.49142720
     atom   17 type  3   force =    -2.24115381   -0.00000000    1.07820906
     atom   18 type  3   force =    -2.24115381   -0.00000000   -1.07820906
     atom   19 type  3   force =     2.24115381   -0.00000000   -1.07820906
     atom   20 type  3   force =     2.24115381    0.00000000    1.07820906
     atom   21 type  3   force =    -2.06778862    2.79254627    1.75033772
     atom   22 type  3   force =    -2.06778862   -2.79254627   -1.75033772
     atom   23 type  3   force =     2.06778862    2.79254627   -1.75033772
     atom   24 type  3   force =     2.06778862   -2.79254627    1.75033772
     atom   25 type  3   force =     2.06778862   -2.79254627   -1.75033772
     atom   26 type  3   force =     2.06778862    2.79254627    1.75033772
     atom   27 type  3   force =    -2.06778862   -2.79254627    1.75033772
     atom   28 type  3   force =    -2.06778862    2.79254627   -1.75033772
     The local contribution  to forces
     atom    1 type  2   force =    -3.22804144   -0.00000000    0.60132185
     atom    2 type  2   force =     3.22804144    0.00000000   -0.60132185
     atom    3 type  2   force =    -3.22804144    0.00000000   -0.60132185
     atom    4 type  2   force =     3.22804144   -0.00000000    0.60132185
     atom    5 type  1   force =     0.00000000    0.00000000   -0.00000000
     atom    6 type  1   force =    -0.00000000    0.00000000   -0.00000000
     atom    7 type  1   force =     0.00000000    0.00000000   -0.00000000
     atom    8 type  1   force =    -0.00000000    0.00000000   -0.00000000
     atom    9 type  4   force =     0.66158850   -0.00000000    0.71861204
     atom   10 type  4   force =    -0.66158850   -0.00000000    0.71861204
     atom   11 type  4   force =    -0.66158850    0.00000000   -0.71861204
     atom   12 type  4   force =     0.66158850    0.00000000   -0.71861204
     atom   13 type  3   force =     2.09634425    0.00000000   -1.61672455
     atom   14 type  3   force =     2.09634425   -0.00000000    1.61672455
     atom   15 type  3   force =    -2.09634425   -0.00000000    1.61672455
     atom   16 type  3   force =    -2.09634425   -0.00000000   -1.61672455
     atom   17 type  3   force =     0.74921427    0.00000000   -0.42774938
     atom   18 type  3   force =     0.74921427    0.00000000    0.42774938
     atom   19 type  3   force =    -0.74921427    0.00000000    0.42774938
     atom   20 type  3   force =    -0.74921427    0.00000000   -0.42774938
     atom   21 type  3   force =     2.54087555   -1.50336070   -1.83873652
     atom   22 type  3   force =     2.54087555    1.50336070    1.83873652
     atom   23 type  3   force =    -2.54087555   -1.50336070    1.83873652
     atom   24 type  3   force =    -2.54087555    1.50336070   -1.83873652
     atom   25 type  3   force =    -2.54087555    1.50336070    1.83873652
     atom   26 type  3   force =    -2.54087555   -1.50336070   -1.83873652
     atom   27 type  3   force =     2.54087555    1.50336070   -1.83873652
     atom   28 type  3   force =     2.54087555   -1.50336070    1.83873652
     The core correction contribution to forces
     atom    1 type  2   force =     0.00000000    0.00000000    0.00000000
     atom    2 type  2   force =     0.00000000    0.00000000    0.00000000
     atom    3 type  2   force =     0.00000000    0.00000000    0.00000000
     atom    4 type  2   force =     0.00000000    0.00000000    0.00000000
     atom    5 type  1   force =     0.00000000    0.00000000    0.00000000
     atom    6 type  1   force =    -0.00000000    0.00000000    0.00000000
     atom    7 type  1   force =    -0.00000000    0.00000000    0.00000000
     atom    8 type  1   force =    -0.00000000   -0.00000000    0.00000000
     atom    9 type  4   force =    -0.00020918    0.00000000   -0.00706309
     atom   10 type  4   force =     0.00020918   -0.00000000   -0.00706309
     atom   11 type  4   force =     0.00020918    0.00000000    0.00706309
     atom   12 type  4   force =    -0.00020918    0.00000000    0.00706309
     atom   13 type  3   force =    -0.00114303   -0.00000000   -0.00828023
     atom   14 type  3   force =    -0.00114303   -0.00000000    0.00828023
     atom   15 type  3   force =     0.00114303   -0.00000000    0.00828023
     atom   16 type  3   force =     0.00114303   -0.00000000   -0.00828023
     atom   17 type  3   force =    -0.01120367   -0.00000000    0.00487413
     atom   18 type  3   force =    -0.01120367    0.00000000   -0.00487413
     atom   19 type  3   force =     0.01120367    0.00000000   -0.00487413
     atom   20 type  3   force =     0.01120367   -0.00000000    0.00487413
     atom   21 type  3   force =     0.00285493    0.00997680    0.00002880
     atom   22 type  3   force =     0.00285493   -0.00997680   -0.00002880
     atom   23 type  3   force =    -0.00285493    0.00997680   -0.00002880
     atom   24 type  3   force =    -0.00285493   -0.00997680    0.00002880
     atom   25 type  3   force =    -0.00285493   -0.00997680   -0.00002880
     atom   26 type  3   force =    -0.00285493    0.00997680    0.00002880
     atom   27 type  3   force =     0.00285493   -0.00997680    0.00002880
     atom   28 type  3   force =     0.00285493    0.00997680   -0.00002880
     The Hubbard contrib.    to forces
     atom    1 type  2   force =     0.00000000    0.00000000    0.00000000
     atom    2 type  2   force =     0.00000000    0.00000000    0.00000000
     atom    3 type  2   force =     0.00000000    0.00000000    0.00000000
     atom    4 type  2   force =     0.00000000    0.00000000    0.00000000
     atom    5 type  1   force =     0.00000000    0.00000000    0.00000000
     atom    6 type  1   force =     0.00000000    0.00000000    0.00000000
     atom    7 type  1   force =     0.00000000    0.00000000    0.00000000
     atom    8 type  1   force =     0.00000000    0.00000000    0.00000000
     atom    9 type  4   force =     0.00000000    0.00000000    0.00000000
     atom   10 type  4   force =     0.00000000    0.00000000    0.00000000
     atom   11 type  4   force =     0.00000000    0.00000000    0.00000000
     atom   12 type  4   force =     0.00000000    0.00000000    0.00000000
     atom   13 type  3   force =     0.00000000    0.00000000    0.00000000
     atom   14 type  3   force =     0.00000000    0.00000000    0.00000000
     atom   15 type  3   force =     0.00000000    0.00000000    0.00000000
     atom   16 type  3   force =     0.00000000    0.00000000    0.00000000
     atom   17 type  3   force =     0.00000000    0.00000000    0.00000000
     atom   18 type  3   force =     0.00000000    0.00000000    0.00000000
     atom   19 type  3   force =     0.00000000    0.00000000    0.00000000
     atom   20 type  3   force =     0.00000000    0.00000000    0.00000000
     atom   21 type  3   force =     0.00000000    0.00000000    0.00000000
     atom   22 type  3   force =     0.00000000    0.00000000    0.00000000
     atom   23 type  3   force =     0.00000000    0.00000000    0.00000000
     atom   24 type  3   force =     0.00000000    0.00000000    0.00000000
     atom   25 type  3   force =     0.00000000    0.00000000    0.00000000
     atom   26 type  3   force =     0.00000000    0.00000000    0.00000000
     atom   27 type  3   force =     0.00000000    0.00000000    0.00000000
     atom   28 type  3   force =     0.00000000    0.00000000    0.00000000
     The SCF correction term to forces
     atom    1 type  2   force =     0.00065364   -0.00000000   -0.00007473
     atom    2 type  2   force =    -0.00065364    0.00000000    0.00007473
     atom    3 type  2   force =     0.00065364    0.00000000    0.00007473
     atom    4 type  2   force =    -0.00065364   -0.00000000   -0.00007473
     atom    5 type  1   force =     0.00000000   -0.00000000    0.00000000
     atom    6 type  1   force =     0.00000000    0.00000000   -0.00000000
     atom    7 type  1   force =    -0.00000000   -0.00000000   -0.00000000
     atom    8 type  1   force =     0.00000000    0.00000000    0.00000000
     atom    9 type  4   force =     0.00009548   -0.00000000    0.00001788
     atom   10 type  4   force =    -0.00009548   -0.00000000    0.00001788
     atom   11 type  4   force =    -0.00009548    0.00000000   -0.00001788
     atom   12 type  4   force =     0.00009548    0.00000000   -0.00001788
     atom   13 type  3   force =    -0.00032816   -0.00000000    0.00108833
     atom   14 type  3   force =    -0.00032816   -0.00000000   -0.00108833
     atom   15 type  3   force =     0.00032816   -0.00000000   -0.00108833
     atom   16 type  3   force =     0.00032816   -0.00000000    0.00108833
     atom   17 type  3   force =     0.00095473    0.00000000   -0.00038220
     atom   18 type  3   force =     0.00095473   -0.00000000    0.00038220
     atom   19 type  3   force =    -0.00095473   -0.00000000    0.00038220
     atom   20 type  3   force =    -0.00095473    0.00000000   -0.00038220
     atom   21 type  3   force =    -0.00060094   -0.00074973    0.00034803
     atom   22 type  3   force =    -0.00060094    0.00074973   -0.00034803
     atom   23 type  3   force =     0.00060094   -0.00074973   -0.00034803
     atom   24 type  3   force =     0.00060094    0.00074973    0.00034803
     atom   25 type  3   force =     0.00060094    0.00074973   -0.00034803
     atom   26 type  3   force =     0.00060094   -0.00074973    0.00034803
     atom   27 type  3   force =    -0.00060094    0.00074973    0.00034803
     atom   28 type  3   force =    -0.00060094   -0.00074973   -0.00034803

     Total force =     0.046947     Total SCF correction =     0.004418


     Computing stress (Cartesian axis) and pressure


     negative rho (up, down):  0.000E+00 1.824E-02
          total   stress  (Ry/bohr**3)                   (kbar)     P=      -11.86
  -0.00006878   0.00000000   0.00000000          -10.12        0.00        0.00
   0.00000000  -0.00008866   0.00000000            0.00      -13.04        0.00
   0.00000000   0.00000000  -0.00008446            0.00        0.00      -12.42

     kinetic stress (kbar)  23376.64      0.00      0.00
                                0.00  23343.98      0.00
                                0.00      0.00  23394.90

     local   stress (kbar)   2704.83      0.00      0.00
                                0.00  -3139.50     -0.00
                                0.00     -0.00   1720.65

     nonloc. stress (kbar)  -5811.27      0.00      0.00
                                0.00  -5828.61      0.00
                                0.00      0.00  -5853.66

     hartree stress (kbar)  10558.29      0.00      0.00
                                0.00  13319.89     -0.00
                                0.00     -0.00  11183.81

     exc-cor stress (kbar)  -4531.44      0.00     -0.00
                                0.00  -4531.31     -0.00
                               -0.00     -0.00  -4532.28

     corecor stress (kbar)  -1435.47      0.00      0.00
                                0.00  -1433.26     -0.00
                                0.00     -0.00  -1431.79

     ewald   stress (kbar) -24871.72     -0.00     -0.00
                               -0.00 -21744.23     -0.00
                               -0.00     -0.00 -24494.05

     hubbard stress (kbar)      0.00      0.00      0.00
                                0.00      0.00      0.00
                                0.00      0.00      0.00

     DFT-D   stress (kbar)      0.00      0.00      0.00
                                0.00      0.00      0.00
                                0.00      0.00      0.00

     XDM     stress (kbar)      0.00      0.00      0.00
                                0.00      0.00      0.00
                                0.00      0.00      0.00

     dft-nl  stress (kbar)      0.00      0.00      0.00
                                0.00      0.00      0.00
                                0.00      0.00      0.00

     TS-vdW  stress (kbar)      0.00      0.00      0.00
                                0.00      0.00      0.00
                                0.00      0.00      0.00

     MDB     stress (kbar)      0.00      0.00      0.00
                                0.00      0.00      0.00
                                0.00      0.00      0.00

     3D-RISM stress (kbar)      0.00      0.00      0.00
                                0.00      0.00      0.00
                                0.00      0.00      0.00


     Writing all to output data dir ./out/aiida.save/ :
     XML data file, charge density, pseudopotentials, collected wavefunctions
 
     init_run     :      4.92s CPU      6.25s WALL (       1 calls)
     electrons    :     97.67s CPU    107.08s WALL (       1 calls)
     forces       :      1.25s CPU      1.35s WALL (       1 calls)
     stress       :      1.93s CPU      2.15s WALL (       1 calls)

     Called by init_run:
     wfcinit      :      2.62s CPU      3.83s WALL (       1 calls)
     wfcinit:atom :      0.24s CPU      0.27s WALL (     120 calls)
     wfcinit:wfcr :      1.79s CPU      2.06s WALL (     120 calls)
     potinit      :      1.31s CPU      1.36s WALL (       1 calls)
     hinit0       :      0.73s CPU      0.75s WALL (       1 calls)

     Called by electrons:
     c_bands      :     81.61s CPU     89.16s WALL (       9 calls)
     sum_band     :     13.71s CPU     15.29s WALL (       9 calls)
     v_of_rho     :      0.15s CPU      0.19s WALL (      10 calls)
     v_h          :      0.05s CPU      0.06s WALL (      10 calls)
     v_xc         :      0.12s CPU      0.15s WALL (      12 calls)
     newd         :      0.31s CPU      0.33s WALL (      10 calls)
                                        0.33s GPU  (      10 calls)
     PAW_pot      :      1.57s CPU      1.68s WALL (      10 calls)
     mix_rho      :      0.23s CPU      0.33s WALL (       9 calls)

     Called by c_bands:
     init_us_2    :      2.01s CPU      2.14s WALL (    2520 calls)
     cegterg      :     66.90s CPU     73.16s WALL (    1080 calls)

     Called by sum_band:
     sum_band:wei :      0.20s CPU      0.20s WALL (       9 calls)
     sum_band:loo :     12.70s CPU     13.93s WALL (       9 calls)
     sum_band:buf :      5.15s CPU      5.68s WALL (    1080 calls)
     sum_band:ini :      0.87s CPU      0.91s WALL (    1080 calls)
     sum_band:cal :      0.06s CPU      0.10s WALL (    1080 calls)
     sum_band:bec :      1.35s CPU      1.49s WALL (    1080 calls)
     addusdens    :      0.57s CPU      0.81s WALL (       9 calls)
                                        0.81s GPU  (       9 calls)
     addusd:skk   :      0.01s CPU      0.01s WALL (      36 calls)
                                        0.01s GPU  (      36 calls)

     Called by *egterg:
     cdiaghg      :     25.43s CPU     27.97s WALL (    6969 calls)
                                       27.93s GPU  (    6969 calls)
     cegterg:over :      3.56s CPU      3.90s WALL (    5889 calls)
     cegterg:upda :      3.55s CPU      3.87s WALL (    5889 calls)
     cegterg:last :      1.02s CPU      1.12s WALL (    2169 calls)
     h_psi        :     28.54s CPU     31.39s WALL (    7089 calls)
                                       31.30s GPU  (    7089 calls)
     s_psi        :      4.32s CPU      4.62s WALL (    7089 calls)
     g_psi        :      0.02s CPU      0.26s WALL (    5889 calls)
                                        0.19s GPU  (    5889 calls)

     Called by h_psi:
     h_psi:calbec :      0.38s CPU      1.59s WALL (    7089 calls)
                                        1.46s GPU  (    7089 calls)
     vloc_psi     :     22.42s CPU     24.53s WALL (    7089 calls)
                                       24.48s GPU  (    7089 calls)
     add_vuspsi   :      3.34s CPU      4.74s WALL (    7089 calls)
                                        4.57s GPU  (    7089 calls)

     General routines
     calbec       :      0.44s CPU      0.52s WALL (   10209 calls)
     fft          :      0.62s CPU      0.64s WALL (     288 calls)
                                        0.02s GPU  (     268 calls)
     ffts         :      0.56s CPU      0.57s WALL (      38 calls)
                                        0.00s GPU  (      18 calls)
     fftw         :      0.52s CPU     18.75s WALL (   61926 calls)
                                       17.20s GPU  (   61926 calls)
     interpolate  :      1.22s CPU      1.23s WALL (      20 calls)
 
     Parallel routines

     PAW routines
     PAW_pot      :      1.57s CPU      1.68s WALL (      10 calls)
     PAW_symme    :      0.00s CPU      0.00s WALL (      19 calls)
 
     PWSCF        :   1m47.36s CPU   2m 6.11s WALL

 
   This run was terminated on:  21:53:21   6Nov2025            

=------------------------------------------------------------------------------=
   JOB DONE.
=------------------------------------------------------------------------------=
