
     Program PWSCF v.7.4.1 starts on  8Nov2025 at 11:32:20 

     This program is part of the open-source Quantum ESPRESSO suite
     for quantum simulation of materials; please cite
         "P. Giannozzi et al., J. Phys.:Condens. Matter 21 395502 (2009);
         "P. Giannozzi et al., J. Phys.:Condens. Matter 29 465901 (2017);
         "P. Giannozzi et al., J. Chem. Phys. 152 154105 (2020);
          URL http://www.quantum-espresso.org", 
     in publications or presentations arising from this work. More details at
     http://www.quantum-espresso.org/quote

     Parallel version (MPI & OpenMP), running on       1 processor cores
     Number of MPI processes:                 1
     Threads/MPI process:                     1

     MPI processes distributed on     1 nodes
     496583 MiB available memory on the printing compute node when the environment starts
 
     Reading input from pwscf.in
Warning: card &FCP ignored
Warning: card &RISM ignored

     Current dimensions of program PWSCF are:
     Max number of different atomic species (ntypx) = 10
     Max number of k-points (npk) =  40000
     Max angular momentum in pseudopotentials (lmaxx) =  4
     file O.pbesol-n-kjpaw_psl.0.1.UPF: wavefunction(s)  2P renormalized
 check tnoseh fnoseh  F    1.000000000000000     
     Message from routine setup:
     using ibrav=0 with symmetry is DISCOURAGED, use correct ibrav instead
 
     Subspace diagonalization in iterative solution of the eigenvalue problem:
     a serial algorithm will be used

 
     G-vector sticks info
     --------------------
     sticks:   dense  smooth     PW     G-vecs:    dense   smooth      PW
     Sum       13863    4633   1287              1071165   206213   30507
 
     Using Slab Decomposition
 


     bravais-lattice index     =            0
     lattice parameter (alat)  =      15.4109  a.u.
     unit-cell volume          =    2911.7647 (a.u.)^3
     number of atoms/cell      =           34
     number of atomic types    =            3
     number of electrons       =       214.00
     number of Kohn-Sham states=          128
     kinetic-energy cutoff     =      65.0000  Ry
     charge density cutoff     =     780.0000  Ry
     scf convergence threshold =      7.6E-09
     mixing beta               =       0.4000
     number of iterations used =            8  plain     mixing
     energy convergence thresh.=      3.8E-04
     force convergence thresh. =      1.0E-04
     press convergence thresh. =      5.0E-01
     Exchange-correlation= PBESOL
                           (   1   4  10   8   0   0   0)
     nstep                     =           50


     GPU acceleration is ACTIVE.  1 visible GPUs per MPI rank
     GPU-aware MPI enabled


     GPU used by master process:

        Device Number: 0
        Device name: NVIDIA A100-SXM-64GB
        Compute capability : 80
        Ratio of single to double precision performance  : 2
        Memory Clock Rate (KHz): 1593000
        Memory Bus Width (bits): 4096
        Peak Memory Bandwidth (GB/s): ******
     Hubbard projectors: ortho-atomic
     Hubbard parameters of DFT+U (Dudarev formulation) in eV:
     U(Mn-3d) =  4.7000

     Internal variables: lda_plus_u = T, lda_plus_u_kind = 0

     celldm(1)=  15.410929  celldm(2)=   0.000000  celldm(3)=   0.000000
     celldm(4)=   0.000000  celldm(5)=   0.000000  celldm(6)=   0.000000

     crystal axes: (cart. coord. in units of alat)
               a(1) = (   0.997296   0.023447   0.069642 )  
               a(2) = (  -0.366162   0.927907   0.069696 )  
               a(3) = (   0.134053   0.202124   0.881387 )  

     reciprocal axes: (cart. coord. in units 2 pi/alat)
               b(1) = (  1.010312  0.417411 -0.249384 )  
               b(2) = ( -0.008283  1.093160 -0.249429 )  
               b(3) = ( -0.079174 -0.119424  1.174004 )  


     PseudoPot. # 1 for Mn read from file:
     /leonardo_scratch/large/userexternal/nalghamd/mc_mace/GNoME-screening/2_space_group_DFT/pseudo_SSSP1.3_aiida/mn_pbesol_v1.5.uspp.F.UPF
     MD5 check sum: 0716d5f563e6e95a34f9080f4c78c109
     Pseudo is Ultrasoft + core correction, Zval = 15.0
     Generated by new atomic code, or converted to UPF format
     Using radial grid of  859 points,  6 beta functions with: 
                l(1) =   0
                l(2) =   0
                l(3) =   1
                l(4) =   1
                l(5) =   2
                l(6) =   2
     Q(r) pseudized with  8 coefficients,  rinner =    0.950   0.950   0.950
                                                       0.950   0.950

     PseudoPot. # 2 for O  read from file:
     /leonardo_scratch/large/userexternal/nalghamd/mc_mace/GNoME-screening/2_space_group_DFT/pseudo_SSSP1.3_aiida/O.pbesol-n-kjpaw_psl.0.1.UPF
     MD5 check sum: 81d73d1479e654e5638b0319f0d6c2c7
     Pseudo is Projector augmented-wave + core cor, Zval =  6.0
     Generated using "atomic" code by A. Dal Corso  v.6.0 svn rev. 13079
     Shape of augmentation charge: BESSEL
     Using radial grid of 1095 points,  4 beta functions with: 
                l(1) =   0
                l(2) =   0
                l(3) =   1
                l(4) =   1
     Q(r) pseudized with 0 coefficients 


     PseudoPot. # 3 for P  read from file:
     /leonardo_scratch/large/userexternal/nalghamd/mc_mace/GNoME-screening/2_space_group_DFT/pseudo_SSSP1.3_aiida/P.pbesol-n-rrkjus_psl.1.0.0.UPF
     MD5 check sum: bbb94b1b16383820d6a769669b5d42db
     Pseudo is Ultrasoft + core correction, Zval =  5.0
     Generated using "atomic" code by A. Dal Corso  v.6.0 svn rev. 13079
     Using radial grid of 1147 points,  6 beta functions with: 
                l(1) =   0
                l(2) =   0
                l(3) =   1
                l(4) =   1
                l(5) =   2
                l(6) =   2
     Q(r) pseudized with 0 coefficients 


     atomic species   valence    mass     pseudopotential
     Mn               15.00    54.93805     Mn( 1.00)
     O                 6.00    15.99940     O ( 1.00)
     P                 5.00    30.97376     P ( 1.00)

     Starting magnetic structure 
     atomic species   magnetization
     Mn              0.333
     O               0.100
     P               0.100

      2 Sym. Ops., with inversion, found


                                    s                        frac. trans.

      isym =  1     identity                                     

 cryst.   s( 1) = (     1          0          0      )
                  (     0          1          0      )
                  (     0          0          1      )

 cart.    s( 1) = (  1.0000000 -0.0000000 -0.0000000 )
                  (  0.0000000  1.0000000  0.0000000 )
                  ( -0.0000000 -0.0000000  1.0000000 )


      isym =  2     inversion                                    

 cryst.   s( 2) = (    -1          0          0      )
                  (     0         -1          0      )
                  (     0          0         -1      )

 cart.    s( 2) = ( -1.0000000  0.0000000  0.0000000 )
                  ( -0.0000000 -1.0000000 -0.0000000 )
                  (  0.0000000  0.0000000 -1.0000000 )


   Cartesian axes

     site n.     atom                  positions (alat units)
         1        Mn     tau(   1) = (  -0.1525952   0.8589899   0.2900511  )
         2        Mn     tau(   2) = (   0.9177824   0.2944885   0.7306741  )
         3        P      tau(   3) = (   0.3033159   0.2165907   0.7291111  )
         4        P      tau(   4) = (   0.7506345   0.8908540   0.7323141  )
         5        P      tau(   5) = (   0.0145526   0.2626244   0.2884112  )
         6        P      tau(   6) = (   0.0674717   0.5942973   0.1474868  )
         7        P      tau(   7) = (   0.5883090   0.3943359   0.5881956  )
         8        P      tau(   8) = (   0.1768781   0.7591425   0.4325297  )
         9        P      tau(   9) = (   0.4618713   0.9368877   0.2916141  )
        10        P      tau(  10) = (   0.6977155   0.5591811   0.8732384  )
        11        O      tau(  11) = (   0.6259948   0.8495349   0.2854924  )
        12        O      tau(  12) = (  -0.0881884   0.9617941   0.7307398  )
        13        O      tau(  13) = (   0.3985007   0.2160429   0.8890512  )
        14        O      tau(  14) = (   0.2019438   0.6238348   0.2899747  )
        15        O      tau(  15) = (   0.8653360   0.5015200   0.7999290  )
        16        O      tau(  16) = (   0.7881580   0.8033601   0.5723847  )
        17        O      tau(  17) = (   0.6063400   1.0080996   0.7261806  )
        18        O      tau(  18) = (   0.1588471   0.1453788   0.2945446  )
        19        O      tau(  19) = (   0.4130285   0.2984924   0.5931468  )
        20        O      tau(  20) = (   0.7066496   0.2623152   0.6614192  )
        21        O      tau(  21) = (   0.6187084   0.4664792   0.4274109  )
        22        O      tau(  22) = (  -0.1001489   0.6519584   0.2207962  )
        23        O      tau(  23) = (   0.5091055   0.3009830   0.1526612  )
        24        O      tau(  24) = (   0.2560816   0.8524954   0.8680640  )
        25        O      tau(  25) = (   0.8533755   0.1916843   0.2899854  )
        26        O      tau(  26) = (   0.0473642   0.3955391   0.1524377  )
        27        O      tau(  27) = (   0.3521586   0.8549860   0.4275785  )
        28        O      tau(  28) = (   0.3666862   0.9374353   0.1316732  )
        29        O      tau(  29) = (   0.0585375   0.8911632   0.3593060  )
        30        O      tau(  30) = (   0.7178229   0.7579393   0.8682876  )
        31        O      tau(  31) = (   0.1464787   0.6869992   0.5933143  )
        32        O      tau(  32) = (   0.1391923   0.3039435   0.7352328  )
        33        O      tau(  33) = (   0.5632433   0.5296436   0.7307506  )
        34        O      tau(  34) = (  -0.0229709   0.3501183   0.4483405  )

   Crystallographic axes

     site n.     atom                  positions (cryst. coord.)
         1        Mn     tau(   1) = (  0.1320491  0.8679303  0.2500192  )
         2        Mn     tau(   2) = (  0.8679509  0.1320697  0.7499808  )
         3        P      tau(   3) = (  0.2150223  0.0523943  0.8060986  )
         4        P      tau(   4) = (  0.9476002  0.7849682  0.6939198  )
         5        P      tau(   5) = (  0.0523998  0.2150318  0.3060802  )
         6        P      tau(   6) = (  0.2794530  0.6123158  0.0968350  )
         7        P      tau(   7) = (  0.6122893  0.2794862  0.5968721  )
         8        P      tau(   8) = (  0.3877107  0.7205138  0.4031279  )
         9        P      tau(   9) = (  0.7849777  0.9476057  0.1939014  )
        10        P      tau(  10) = (  0.7205470  0.3876842  0.9031650  )
        11        O      tau(  11) = (  0.9158583  0.8522825  0.1841521  )
        12        O      tau(  12) = (  0.1301310  0.8698576  0.7500129  )
        13        O      tau(  13) = (  0.2710736  0.0111134  0.9863982  )
        14        O      tau(  14) = (  0.3921069  0.6079506  0.2499421  )
        15        O      tau(  15) = (  0.8841099  0.3415485  0.8107143  )
        16        O      tau(  16) = (  0.9888734  0.7289036  0.5136400  )
        17        O      tau(  17) = (  0.8522869  0.9158615  0.6841416  )
        18        O      tau(  18) = (  0.1477131  0.0841385  0.3158584  )
        19        O      tau(  19) = (  0.3939604  0.1749308  0.6280085  )
        20        O      tau(  20) = (  0.6584825  0.1159222  0.6892338  )
        21        O      tau(  21) = (  0.7132127  0.3982031  0.3970878  )
        22        O      tau(  22) = (  0.1158901  0.6584515  0.1892857  )
        23        O      tau(  23) = (  0.6019179  0.2867276  0.1029723  )
        24        O      tau(  24) = (  0.3980821  0.7132724  0.8970277  )
        25        O      tau(  25) = (  0.8698690  0.1301424  0.2499871  )
        26        O      tau(  26) = (  0.1749396  0.3939729  0.1279758  )
        27        O      tau(  27) = (  0.6060396  0.8250692  0.3719915  )
        28        O      tau(  28) = (  0.7289264  0.9888866  0.0136008  )
        29        O      tau(  29) = (  0.3415175  0.8840778  0.3107662  )
        30        O      tau(  30) = (  0.8250604  0.6060271  0.8720242  )
        31        O      tau(  31) = (  0.2867873  0.6017969  0.6029122  )
        32        O      tau(  32) = (  0.0841417  0.1477175  0.8158479  )
        33        O      tau(  33) = (  0.6078931  0.3920494  0.7500579  )
        34        O      tau(  34) = (  0.0111266  0.2710964  0.4863600  )

     number of k points=   112  Marzari-Vanderbilt smearing, width (Ry)=  0.0200
                       cart. coord. in units 2pi/alat
        k(    1) = (   0.0000000   0.0000000   0.0000000), wk =   0.0046296
        k(    2) = (  -0.0131957  -0.0199039   0.1956674), wk =   0.0092593
        k(    3) = (  -0.0263914  -0.0398079   0.3913347), wk =   0.0092593
        k(    4) = (   0.0395872   0.0597118  -0.5870021), wk =   0.0046296
        k(    5) = (  -0.0013805   0.1821934  -0.0415716), wk =   0.0092593
        k(    6) = (  -0.0145762   0.1622894   0.1540958), wk =   0.0092593
        k(    7) = (  -0.0277719   0.1423855   0.3497632), wk =   0.0092593
        k(    8) = (   0.0382067   0.2419052  -0.6285736), wk =   0.0092593
        k(    9) = (   0.0250110   0.2220012  -0.4329063), wk =   0.0092593
        k(   10) = (   0.0118152   0.2020973  -0.2372389), wk =   0.0092593
        k(   11) = (  -0.0027610   0.3643868  -0.0831431), wk =   0.0092593
        k(   12) = (  -0.0159567   0.3444828   0.1125243), wk =   0.0092593
        k(   13) = (  -0.0291524   0.3245789   0.3081916), wk =   0.0092593
        k(   14) = (   0.0368262   0.4240985  -0.6701452), wk =   0.0092593
        k(   15) = (   0.0236305   0.4041946  -0.4744778), wk =   0.0092593
        k(   16) = (   0.0104348   0.3842907  -0.2788105), wk =   0.0092593
        k(   17) = (   0.0041414  -0.5465801   0.1247147), wk =   0.0046296
        k(   18) = (  -0.0090543  -0.5664841   0.3203820), wk =   0.0092593
        k(   19) = (  -0.0222500  -0.5863880   0.5160494), wk =   0.0092593
        k(   20) = (   0.0437286  -0.4868683  -0.4622874), wk =   0.0046296
        k(   21) = (   0.1683854   0.0695686  -0.0415640), wk =   0.0092593
        k(   22) = (   0.1551896   0.0496646   0.1541033), wk =   0.0092593
        k(   23) = (   0.1419939   0.0297607   0.3497707), wk =   0.0092593
        k(   24) = (   0.2079725   0.1292803  -0.6285661), wk =   0.0092593
        k(   25) = (   0.1947768   0.1093764  -0.4328988), wk =   0.0092593
        k(   26) = (   0.1815811   0.0894725  -0.2372314), wk =   0.0092593
        k(   27) = (   0.1670049   0.2517619  -0.0831356), wk =   0.0092593
        k(   28) = (   0.1538092   0.2318580   0.1125318), wk =   0.0092593
        k(   29) = (   0.1406134   0.2119541   0.3081991), wk =   0.0092593
        k(   30) = (   0.2065920   0.3114737  -0.6701377), wk =   0.0092593
        k(   31) = (   0.1933963   0.2915698  -0.4744703), wk =   0.0092593
        k(   32) = (   0.1802006   0.2716659  -0.2788029), wk =   0.0092593
        k(   33) = (   0.1656244   0.4339553  -0.1247071), wk =   0.0092593
        k(   34) = (   0.1524287   0.4140514   0.0709602), wk =   0.0092593
        k(   35) = (   0.1392330   0.3941474   0.2666276), wk =   0.0092593
        k(   36) = (   0.2052116   0.4936671  -0.7117092), wk =   0.0092593
        k(   37) = (   0.1920158   0.4737632  -0.5160419), wk =   0.0092593
        k(   38) = (   0.1788201   0.4538592  -0.3203745), wk =   0.0092593
        k(   39) = (   0.1725268  -0.4770116   0.0831506), wk =   0.0092593
        k(   40) = (   0.1593311  -0.4969155   0.2788180), wk =   0.0092593
        k(   41) = (   0.1461353  -0.5168194   0.4744853), wk =   0.0092593
        k(   42) = (   0.2121139  -0.4172998  -0.5038515), wk =   0.0092593
        k(   43) = (   0.1989182  -0.4372037  -0.3081841), wk =   0.0092593
        k(   44) = (   0.1857225  -0.4571076  -0.1125167), wk =   0.0092593
        k(   45) = (   0.1711463  -0.2948182   0.0415791), wk =   0.0092593
        k(   46) = (   0.1579506  -0.3147221   0.2372464), wk =   0.0092593
        k(   47) = (   0.1447549  -0.3346261   0.4329138), wk =   0.0092593
        k(   48) = (   0.2107335  -0.2351064  -0.5454230), wk =   0.0092593
        k(   49) = (   0.1975377  -0.2550103  -0.3497556), wk =   0.0092593
        k(   50) = (   0.1843420  -0.2749143  -0.1540883), wk =   0.0092593
        k(   51) = (   0.1697658  -0.1126248   0.0000075), wk =   0.0092593
        k(   52) = (   0.1565701  -0.1325288   0.1956749), wk =   0.0092593
        k(   53) = (   0.1433744  -0.1524327   0.3913422), wk =   0.0092593
        k(   54) = (   0.2093530  -0.0529130  -0.5869946), wk =   0.0092593
        k(   55) = (   0.1961573  -0.0728170  -0.3913272), wk =   0.0092593
        k(   56) = (   0.1829615  -0.0927209  -0.1956598), wk =   0.0092593
        k(   57) = (   0.3367707   0.1391371  -0.0831281), wk =   0.0092593
        k(   58) = (   0.3235750   0.1192332   0.1125393), wk =   0.0092593
        k(   59) = (   0.3103793   0.0993292   0.3082067), wk =   0.0092593
        k(   60) = (   0.3763579   0.1988489  -0.6701301), wk =   0.0092593
        k(   61) = (   0.3631621   0.1789450  -0.4744628), wk =   0.0092593
        k(   62) = (   0.3499664   0.1590410  -0.2787954), wk =   0.0092593
        k(   63) = (   0.3353902   0.3213305  -0.1246996), wk =   0.0092593
        k(   64) = (   0.3221945   0.3014265   0.0709677), wk =   0.0092593
        k(   65) = (   0.3089988   0.2815226   0.2666351), wk =   0.0092593
        k(   66) = (   0.3749774   0.3810423  -0.7117017), wk =   0.0092593
        k(   67) = (   0.3617817   0.3611383  -0.5160343), wk =   0.0092593
        k(   68) = (   0.3485859   0.3412344  -0.3203670), wk =   0.0092593
        k(   69) = (   0.3340097   0.5035239  -0.1662712), wk =   0.0092593
        k(   70) = (   0.3208140   0.4836199   0.0293962), wk =   0.0092593
        k(   71) = (   0.3076183   0.4637160   0.2250636), wk =   0.0092593
        k(   72) = (   0.3735969   0.5632356  -0.7532732), wk =   0.0092593
        k(   73) = (   0.3604012   0.5433317  -0.5576059), wk =   0.0092593
        k(   74) = (   0.3472055   0.5234278  -0.3619385), wk =   0.0092593
        k(   75) = (   0.3409121  -0.4074430   0.0415866), wk =   0.0092593
        k(   76) = (   0.3277164  -0.4273470   0.2372540), wk =   0.0092593
        k(   77) = (   0.3145207  -0.4472509   0.4329213), wk =   0.0092593
        k(   78) = (   0.3804993  -0.3477312  -0.5454155), wk =   0.0092593
        k(   79) = (   0.3673036  -0.3676352  -0.3497481), wk =   0.0092593
        k(   80) = (   0.3541079  -0.3875391  -0.1540808), wk =   0.0092593
        k(   81) = (   0.3395317  -0.2252496   0.0000150), wk =   0.0092593
        k(   82) = (   0.3263359  -0.2451536   0.1956824), wk =   0.0092593
        k(   83) = (   0.3131402  -0.2650575   0.3913498), wk =   0.0092593
        k(   84) = (   0.3791188  -0.1655379  -0.5869870), wk =   0.0092593
        k(   85) = (   0.3659231  -0.1854418  -0.3913197), wk =   0.0092593
        k(   86) = (   0.3527274  -0.2053457  -0.1956523), wk =   0.0092593
        k(   87) = (   0.3381512  -0.0430563  -0.0415565), wk =   0.0092593
        k(   88) = (   0.3249555  -0.0629602   0.1541108), wk =   0.0092593
        k(   89) = (   0.3117597  -0.0828641   0.3497782), wk =   0.0092593
        k(   90) = (   0.3777383   0.0166555  -0.6285586), wk =   0.0092593
        k(   91) = (   0.3645426  -0.0032484  -0.4328912), wk =   0.0092593
        k(   92) = (   0.3513469  -0.0231523  -0.2372239), wk =   0.0092593
        k(   93) = (  -0.5051561  -0.2087057   0.1246921), wk =   0.0046296
        k(   94) = (  -0.5183518  -0.2286096   0.3203595), wk =   0.0092593
        k(   95) = (  -0.5315475  -0.2485135   0.5160268), wk =   0.0092593
        k(   96) = (  -0.4655689  -0.1489939  -0.4623100), wk =   0.0046296
        k(   97) = (  -0.5065365  -0.0265123   0.0831205), wk =   0.0092593
        k(   98) = (  -0.5197322  -0.0464162   0.2787879), wk =   0.0092593
        k(   99) = (  -0.5329280  -0.0663201   0.4744553), wk =   0.0092593
        k(  100) = (  -0.4669494   0.0331995  -0.5038815), wk =   0.0092593
        k(  101) = (  -0.4801451   0.0132956  -0.3082142), wk =   0.0092593
        k(  102) = (  -0.4933408  -0.0066084  -0.1125468), wk =   0.0092593
        k(  103) = (  -0.5079170   0.1556811   0.0415490), wk =   0.0092593
        k(  104) = (  -0.5211127   0.1357772   0.2372164), wk =   0.0092593
        k(  105) = (  -0.5343084   0.1158732   0.4328837), wk =   0.0092593
        k(  106) = (  -0.4683298   0.2153929  -0.5454531), wk =   0.0092593
        k(  107) = (  -0.4815256   0.1954890  -0.3497857), wk =   0.0092593
        k(  108) = (  -0.4947213   0.1755850  -0.1541184), wk =   0.0092593
        k(  109) = (  -0.5010146  -0.7552858   0.2494067), wk =   0.0046296
        k(  110) = (  -0.5142103  -0.7751897   0.4450741), wk =   0.0092593
        k(  111) = (  -0.5274061  -0.7950936   0.6407415), wk =   0.0092593
        k(  112) = (  -0.4614275  -0.6955740  -0.3375953), wk =   0.0046296

                       cryst. coord.
        k(    1) = (   0.0000000   0.0000000   0.0000000), wk =   0.0046296
        k(    2) = (   0.0000000   0.0000000   0.1666667), wk =   0.0092593
        k(    3) = (   0.0000000   0.0000000   0.3333333), wk =   0.0092593
        k(    4) = (  -0.0000000   0.0000000  -0.5000000), wk =   0.0046296
        k(    5) = (   0.0000000   0.1666667   0.0000000), wk =   0.0092593
        k(    6) = (   0.0000000   0.1666667   0.1666667), wk =   0.0092593
        k(    7) = (   0.0000000   0.1666667   0.3333333), wk =   0.0092593
        k(    8) = (  -0.0000000   0.1666667  -0.5000000), wk =   0.0092593
        k(    9) = (  -0.0000000   0.1666667  -0.3333333), wk =   0.0092593
        k(   10) = (  -0.0000000   0.1666667  -0.1666667), wk =   0.0092593
        k(   11) = (   0.0000000   0.3333333   0.0000000), wk =   0.0092593
        k(   12) = (   0.0000000   0.3333333   0.1666667), wk =   0.0092593
        k(   13) = (   0.0000000   0.3333333   0.3333333), wk =   0.0092593
        k(   14) = (  -0.0000000   0.3333333  -0.5000000), wk =   0.0092593
        k(   15) = (  -0.0000000   0.3333333  -0.3333333), wk =   0.0092593
        k(   16) = (  -0.0000000   0.3333333  -0.1666667), wk =   0.0092593
        k(   17) = (  -0.0000000  -0.5000000  -0.0000000), wk =   0.0046296
        k(   18) = (  -0.0000000  -0.5000000   0.1666667), wk =   0.0092593
        k(   19) = (  -0.0000000  -0.5000000   0.3333333), wk =   0.0092593
        k(   20) = (  -0.0000000  -0.5000000  -0.5000000), wk =   0.0046296
        k(   21) = (   0.1666667  -0.0000000   0.0000000), wk =   0.0092593
        k(   22) = (   0.1666667  -0.0000000   0.1666667), wk =   0.0092593
        k(   23) = (   0.1666667   0.0000000   0.3333333), wk =   0.0092593
        k(   24) = (   0.1666667   0.0000000  -0.5000000), wk =   0.0092593
        k(   25) = (   0.1666667   0.0000000  -0.3333333), wk =   0.0092593
        k(   26) = (   0.1666667  -0.0000000  -0.1666667), wk =   0.0092593
        k(   27) = (   0.1666667   0.1666667   0.0000000), wk =   0.0092593
        k(   28) = (   0.1666667   0.1666667   0.1666667), wk =   0.0092593
        k(   29) = (   0.1666667   0.1666667   0.3333333), wk =   0.0092593
        k(   30) = (   0.1666667   0.1666667  -0.5000000), wk =   0.0092593
        k(   31) = (   0.1666667   0.1666667  -0.3333333), wk =   0.0092593
        k(   32) = (   0.1666667   0.1666667  -0.1666667), wk =   0.0092593
        k(   33) = (   0.1666667   0.3333333   0.0000000), wk =   0.0092593
        k(   34) = (   0.1666667   0.3333333   0.1666667), wk =   0.0092593
        k(   35) = (   0.1666667   0.3333333   0.3333333), wk =   0.0092593
        k(   36) = (   0.1666667   0.3333333  -0.5000000), wk =   0.0092593
        k(   37) = (   0.1666667   0.3333333  -0.3333333), wk =   0.0092593
        k(   38) = (   0.1666667   0.3333333  -0.1666667), wk =   0.0092593
        k(   39) = (   0.1666667  -0.5000000  -0.0000000), wk =   0.0092593
        k(   40) = (   0.1666667  -0.5000000   0.1666667), wk =   0.0092593
        k(   41) = (   0.1666667  -0.5000000   0.3333333), wk =   0.0092593
        k(   42) = (   0.1666667  -0.5000000  -0.5000000), wk =   0.0092593
        k(   43) = (   0.1666667  -0.5000000  -0.3333333), wk =   0.0092593
        k(   44) = (   0.1666667  -0.5000000  -0.1666667), wk =   0.0092593
        k(   45) = (   0.1666667  -0.3333333  -0.0000000), wk =   0.0092593
        k(   46) = (   0.1666667  -0.3333333   0.1666667), wk =   0.0092593
        k(   47) = (   0.1666667  -0.3333333   0.3333333), wk =   0.0092593
        k(   48) = (   0.1666667  -0.3333333  -0.5000000), wk =   0.0092593
        k(   49) = (   0.1666667  -0.3333333  -0.3333333), wk =   0.0092593
        k(   50) = (   0.1666667  -0.3333333  -0.1666667), wk =   0.0092593
        k(   51) = (   0.1666667  -0.1666667  -0.0000000), wk =   0.0092593
        k(   52) = (   0.1666667  -0.1666667   0.1666667), wk =   0.0092593
        k(   53) = (   0.1666667  -0.1666667   0.3333333), wk =   0.0092593
        k(   54) = (   0.1666667  -0.1666667  -0.5000000), wk =   0.0092593
        k(   55) = (   0.1666667  -0.1666667  -0.3333333), wk =   0.0092593
        k(   56) = (   0.1666667  -0.1666667  -0.1666667), wk =   0.0092593
        k(   57) = (   0.3333333  -0.0000000   0.0000000), wk =   0.0092593
        k(   58) = (   0.3333333  -0.0000000   0.1666667), wk =   0.0092593
        k(   59) = (   0.3333333  -0.0000000   0.3333333), wk =   0.0092593
        k(   60) = (   0.3333333   0.0000000  -0.5000000), wk =   0.0092593
        k(   61) = (   0.3333333   0.0000000  -0.3333333), wk =   0.0092593
        k(   62) = (   0.3333333  -0.0000000  -0.1666667), wk =   0.0092593
        k(   63) = (   0.3333333   0.1666667   0.0000000), wk =   0.0092593
        k(   64) = (   0.3333333   0.1666667   0.1666667), wk =   0.0092593
        k(   65) = (   0.3333333   0.1666667   0.3333333), wk =   0.0092593
        k(   66) = (   0.3333333   0.1666667  -0.5000000), wk =   0.0092593
        k(   67) = (   0.3333333   0.1666667  -0.3333333), wk =   0.0092593
        k(   68) = (   0.3333333   0.1666667  -0.1666667), wk =   0.0092593
        k(   69) = (   0.3333333   0.3333333   0.0000000), wk =   0.0092593
        k(   70) = (   0.3333333   0.3333333   0.1666667), wk =   0.0092593
        k(   71) = (   0.3333333   0.3333333   0.3333333), wk =   0.0092593
        k(   72) = (   0.3333333   0.3333333  -0.5000000), wk =   0.0092593
        k(   73) = (   0.3333333   0.3333333  -0.3333333), wk =   0.0092593
        k(   74) = (   0.3333333   0.3333333  -0.1666667), wk =   0.0092593
        k(   75) = (   0.3333333  -0.5000000  -0.0000000), wk =   0.0092593
        k(   76) = (   0.3333333  -0.5000000   0.1666667), wk =   0.0092593
        k(   77) = (   0.3333333  -0.5000000   0.3333333), wk =   0.0092593
        k(   78) = (   0.3333333  -0.5000000  -0.5000000), wk =   0.0092593
        k(   79) = (   0.3333333  -0.5000000  -0.3333333), wk =   0.0092593
        k(   80) = (   0.3333333  -0.5000000  -0.1666667), wk =   0.0092593
        k(   81) = (   0.3333333  -0.3333333  -0.0000000), wk =   0.0092593
        k(   82) = (   0.3333333  -0.3333333   0.1666667), wk =   0.0092593
        k(   83) = (   0.3333333  -0.3333333   0.3333333), wk =   0.0092593
        k(   84) = (   0.3333333  -0.3333333  -0.5000000), wk =   0.0092593
        k(   85) = (   0.3333333  -0.3333333  -0.3333333), wk =   0.0092593
        k(   86) = (   0.3333333  -0.3333333  -0.1666667), wk =   0.0092593
        k(   87) = (   0.3333333  -0.1666667  -0.0000000), wk =   0.0092593
        k(   88) = (   0.3333333  -0.1666667   0.1666667), wk =   0.0092593
        k(   89) = (   0.3333333  -0.1666667   0.3333333), wk =   0.0092593
        k(   90) = (   0.3333333  -0.1666667  -0.5000000), wk =   0.0092593
        k(   91) = (   0.3333333  -0.1666667  -0.3333333), wk =   0.0092593
        k(   92) = (   0.3333333  -0.1666667  -0.1666667), wk =   0.0092593
        k(   93) = (  -0.5000000  -0.0000000   0.0000000), wk =   0.0046296
        k(   94) = (  -0.5000000   0.0000000   0.1666667), wk =   0.0092593
        k(   95) = (  -0.5000000  -0.0000000   0.3333333), wk =   0.0092593
        k(   96) = (  -0.5000000  -0.0000000  -0.5000000), wk =   0.0046296
        k(   97) = (  -0.5000000   0.1666667   0.0000000), wk =   0.0092593
        k(   98) = (  -0.5000000   0.1666667   0.1666667), wk =   0.0092593
        k(   99) = (  -0.5000000   0.1666667   0.3333333), wk =   0.0092593
        k(  100) = (  -0.5000000   0.1666667  -0.5000000), wk =   0.0092593
        k(  101) = (  -0.5000000   0.1666667  -0.3333333), wk =   0.0092593
        k(  102) = (  -0.5000000   0.1666667  -0.1666667), wk =   0.0092593
        k(  103) = (  -0.5000000   0.3333333   0.0000000), wk =   0.0092593
        k(  104) = (  -0.5000000   0.3333333   0.1666667), wk =   0.0092593
        k(  105) = (  -0.5000000   0.3333333   0.3333333), wk =   0.0092593
        k(  106) = (  -0.5000000   0.3333333  -0.5000000), wk =   0.0092593
        k(  107) = (  -0.5000000   0.3333333  -0.3333333), wk =   0.0092593
        k(  108) = (  -0.5000000   0.3333333  -0.1666667), wk =   0.0092593
        k(  109) = (  -0.5000000  -0.5000000  -0.0000000), wk =   0.0046296
        k(  110) = (  -0.5000000  -0.5000000   0.1666667), wk =   0.0092593
        k(  111) = (  -0.5000000  -0.5000000   0.3333333), wk =   0.0092593
        k(  112) = (  -0.5000000  -0.5000000  -0.5000000), wk =   0.0046296

     Dense  grid:  1071165 G-vectors     FFT dimensions: ( 144, 144, 125)

     Smooth grid:   206213 G-vectors     FFT dimensions: (  80,  80,  75)

     Dynamical RAM for                 wfc:      50.33 MB

     Dynamical RAM for     wfc (w. buffer):   11323.83 MB

     Dynamical RAM for             U proj.:       3.93 MB

     Dynamical RAM for  U proj. (w. buff.):     884.67 MB

     Dynamical RAM for           str. fact:      49.03 MB

     Dynamical RAM for           local pot:       0.00 MB

     Dynamical RAM for          nlocal pot:     146.27 MB

     Dynamical RAM for                qrad:      13.44 MB

     Dynamical RAM for          rho,v,vnew:     216.72 MB

     Dynamical RAM for               rhoin:      72.24 MB

     Dynamical RAM for            rho*nmix:     523.03 MB

     Dynamical RAM for           G-vectors:      62.87 MB

     Dynamical RAM for          h,s,v(r/c):       3.00 MB

     Dynamical RAM for          <psi|beta>:       0.73 MB

     Dynamical RAM for                 psi:     100.66 MB

     Dynamical RAM for                hpsi:     100.66 MB

     Dynamical RAM for                spsi:     100.66 MB

     Dynamical RAM for      wfcinit/wfcrot:     101.03 MB

     Dynamical RAM for           addusdens:    3448.73 MB

     Dynamical RAM for          addusforce:    4200.77 MB

     Dynamical RAM for         addusstress:    3309.80 MB

     Estimated static dynamical RAM per process >      12.65 GB

     Estimated max dynamical RAM per process >      17.26 GB

     Atomic positions and unit cell read from directory:
     ./out/aiida.save/
     Atomic positions from file used, from input discarded
 
     New effective cutoffs (rho, wfc):  788.31   65.71

     Check: negative core charge=   -0.000003
     Generating pointlists ...
     new r_m :   0.0942 (alat units)  1.4517 (a.u.) for type    1
     new r_m :   0.0738 (alat units)  1.1373 (a.u.) for type    2
     new r_m :   0.0738 (alat units)  1.1373 (a.u.) for type    3

     The initial density is read from file :
     ./out/aiida.save/charge-density


     negative rho (up, down):  5.281E+01 4.136E+01

     HUBBARD ENERGY =    0.4098  (Ry)

     STARTING HUBBARD OCCUPATIONS:

     =================== HUBBARD OCCUPATIONS ===================
     ------------------------ ATOM    1 ------------------------
     Tr[ns(  1)] (up, down, total) =   4.07530  0.85845  4.93375
     Atomic magnetic moment for atom   1 =   3.21685
     SPIN  1
     eigenvalues:
       0.531  0.557  0.995  0.996  0.996
     eigenvectors (columns):
       0.749 -0.000 -0.575 -0.329  0.000
       0.349 -0.388  0.261  0.340  0.737
       0.527  0.257  0.392  0.513 -0.489
      -0.077  0.815 -0.260  0.278  0.429
       0.183  0.344  0.617 -0.660  0.181
     occupation matrix ns (before diag.):
       0.735 -0.122 -0.183  0.027 -0.064
      -0.122  0.873 -0.042  0.151  0.029
      -0.183 -0.042  0.838 -0.073 -0.084
       0.027  0.151 -0.073  0.701 -0.116
      -0.064  0.029 -0.084 -0.116  0.928
     SPIN  2
     eigenvalues:
       0.091  0.109  0.115  0.263  0.280
     eigenvectors (columns):
       0.380  0.492 -0.000 -0.784  0.000
      -0.066 -0.450 -0.724 -0.314 -0.412
      -0.099 -0.678  0.481 -0.474  0.274
       0.357 -0.120 -0.456  0.098  0.801
      -0.845  0.285 -0.193 -0.231  0.338
     occupation matrix ns (before diag.):
       0.201  0.038  0.058 -0.014  0.033
       0.038  0.156  0.001 -0.059 -0.013
       0.058  0.001  0.157  0.030  0.031
      -0.014 -0.059  0.030  0.219  0.049
       0.033 -0.013  0.031  0.049  0.124
     ------------------------ ATOM    2 ------------------------
     Tr[ns(  2)] (up, down, total) =   4.07530  0.85845  4.93375
     Atomic magnetic moment for atom   2 =   3.21685
     SPIN  1
     eigenvalues:
       0.531  0.557  0.995  0.996  0.996
     eigenvectors (columns):
       0.749 -0.000 -0.575 -0.329  0.000
       0.349 -0.388  0.261  0.340  0.737
       0.527  0.257  0.392  0.513 -0.489
      -0.077  0.815 -0.260  0.278  0.429
       0.183  0.344  0.617 -0.660  0.181
     occupation matrix ns (before diag.):
       0.735 -0.122 -0.183  0.027 -0.064
      -0.122  0.873 -0.042  0.151  0.029
      -0.183 -0.042  0.838 -0.073 -0.084
       0.027  0.151 -0.073  0.701 -0.116
      -0.064  0.029 -0.084 -0.116  0.928
     SPIN  2
     eigenvalues:
       0.091  0.109  0.115  0.263  0.280
     eigenvectors (columns):
       0.380  0.492 -0.000 -0.784  0.000
      -0.066 -0.450 -0.724 -0.314 -0.412
      -0.099 -0.678  0.481 -0.474  0.274
       0.357 -0.120 -0.456  0.098  0.801
      -0.845  0.285 -0.193 -0.231  0.338
     occupation matrix ns (before diag.):
       0.201  0.038  0.058 -0.014  0.033
       0.038  0.156  0.001 -0.059 -0.013
       0.058  0.001  0.157  0.030  0.031
      -0.014 -0.059  0.030  0.219  0.049
       0.033 -0.013  0.031  0.049  0.124

     Number of occupied Hubbard levels =    9.8675

     Atomic wfc used for Hubbard projectors are orthogonalized

     Starting wfcs from file
     Checking if some PAW data can be deallocated... 

     total cpu time spent up to now is       39.8 secs

     Self-consistent Calculation
[tb_dev] Currently allocated     1.90E+00 Mbytes, locked:    0 /   3
[tb_pin] Currently allocated     0.00E+00 Mbytes, locked:    0 /   0

     iteration #  1     ecut=    65.00 Ry     beta= 0.40
     Davidson diagonalization with overlap

---- Real-time Memory Report at c_bands before calling an iterative solver
         13538 MiB given to the printing process from OS
             0 MiB allocation reported by mallinfo(arena+hblkhd)
        471259 MiB available memory on the node where the printing process lives
     GPU memory used/free/total (MiB): 6564 / 58380 / 64944
------------------
     c_bands:  1 eigenvalues not converged
     c_bands:  1 eigenvalues not converged
     c_bands:  1 eigenvalues not converged
     c_bands:  1 eigenvalues not converged
     c_bands:  1 eigenvalues not converged
     c_bands:  1 eigenvalues not converged
     c_bands:  1 eigenvalues not converged
     c_bands:  1 eigenvalues not converged
     c_bands:  1 eigenvalues not converged
     c_bands:  1 eigenvalues not converged
     c_bands:  1 eigenvalues not converged
     c_bands:  1 eigenvalues not converged
     c_bands:  1 eigenvalues not converged
     c_bands:  1 eigenvalues not converged
     c_bands:  1 eigenvalues not converged
     c_bands:  1 eigenvalues not converged
     c_bands:  1 eigenvalues not converged
     c_bands:  1 eigenvalues not converged
     c_bands:  1 eigenvalues not converged
     c_bands:  1 eigenvalues not converged
     c_bands:  2 eigenvalues not converged
     c_bands:  1 eigenvalues not converged
     c_bands:  1 eigenvalues not converged
     c_bands:  1 eigenvalues not converged
     c_bands:  1 eigenvalues not converged
     c_bands:  1 eigenvalues not converged
     c_bands:  1 eigenvalues not converged
     c_bands:  1 eigenvalues not converged
     c_bands:  1 eigenvalues not converged
     c_bands:  1 eigenvalues not converged
     c_bands:  1 eigenvalues not converged
     c_bands:  1 eigenvalues not converged
     c_bands:  1 eigenvalues not converged
     c_bands:  1 eigenvalues not converged
     c_bands:  1 eigenvalues not converged
     c_bands:  1 eigenvalues not converged
     ethr =  1.00E-05,  avg # of iterations = 37.6

     =================== HUBBARD OCCUPATIONS ===================
     ------------------------ ATOM    1 ------------------------
     Tr[ns(  1)] (up, down, total) =   4.33969  4.29081  8.63050
     Atomic magnetic moment for atom   1 =   0.04888
     SPIN  1
     eigenvalues:
       0.837  0.851  0.873  0.886  0.892
     eigenvectors (columns):
       0.088  0.539  0.096  0.803 -0.219
      -0.217 -0.164 -0.084  0.384  0.878
      -0.310 -0.747  0.188  0.410 -0.378
      -0.341  0.209  0.891 -0.177  0.118
       0.856 -0.284  0.392  0.093  0.156
     occupation matrix ns (before diag.):
       0.876  0.003  0.016 -0.004  0.001
       0.003  0.888 -0.009 -0.001  0.009
       0.016 -0.009  0.863 -0.002  0.004
      -0.004 -0.001 -0.002  0.868  0.012
       0.001  0.009  0.004  0.012  0.845
     SPIN  2
     eigenvalues:
       0.824  0.838  0.868  0.877  0.884
     eigenvectors (columns):
       0.094  0.560 -0.013 -0.204 -0.797
      -0.207 -0.164  0.191  0.872 -0.366
      -0.339 -0.717  0.075 -0.416 -0.439
      -0.316  0.239  0.890 -0.160  0.157
       0.856 -0.297  0.406  0.010 -0.117
     occupation matrix ns (before diag.):
       0.869  0.007  0.020 -0.004  0.003
       0.007  0.874 -0.007 -0.004  0.007
       0.020 -0.007  0.852 -0.000  0.007
      -0.004 -0.004 -0.000  0.862  0.014
       0.003  0.007  0.007  0.014  0.833
     ------------------------ ATOM    2 ------------------------
     Tr[ns(  2)] (up, down, total) =   4.33969  4.29081  8.63050
     Atomic magnetic moment for atom   2 =   0.04888
     SPIN  1
     eigenvalues:
       0.837  0.851  0.873  0.886  0.892
     eigenvectors (columns):
       0.088  0.539  0.096  0.803 -0.219
      -0.217 -0.164 -0.084  0.384  0.878
      -0.310 -0.747  0.188  0.410 -0.378
      -0.341  0.209  0.891 -0.177  0.118
       0.856 -0.284  0.392  0.093  0.156
     occupation matrix ns (before diag.):
       0.876  0.003  0.016 -0.004  0.001
       0.003  0.888 -0.009 -0.001  0.009
       0.016 -0.009  0.863 -0.002  0.004
      -0.004 -0.001 -0.002  0.868  0.012
       0.001  0.009  0.004  0.012  0.845
     SPIN  2
     eigenvalues:
       0.824  0.838  0.868  0.877  0.884
     eigenvectors (columns):
       0.094  0.560 -0.013 -0.204 -0.797
      -0.207 -0.164  0.191  0.872 -0.366
      -0.339 -0.717  0.075 -0.416 -0.439
      -0.316  0.239  0.890 -0.160  0.157
       0.856 -0.297  0.406  0.010 -0.117
     occupation matrix ns (before diag.):
       0.869  0.007  0.020 -0.004  0.003
       0.007  0.874 -0.007 -0.004  0.007
       0.020 -0.007  0.852 -0.000  0.007
      -0.004 -0.004 -0.000  0.862  0.014
       0.003  0.007  0.007  0.014  0.833

     Number of occupied Hubbard levels =   17.2610

     negative rho (up, down):  2.393E+01 1.782E+01

     HUBBARD ENERGY =    0.6292  (Ry)

     total cpu time spent up to now is      206.9 secs

     total energy              =   -1310.39385132 Ry
     estimated scf accuracy    <    1210.76893753 Ry

     total magnetization       =    -0.76 Bohr mag/cell
     absolute magnetization    =     3.14 Bohr mag/cell
[tb_dev] Currently allocated     0.00E+00 Mbytes, locked:    0 /   0
[tb_pin] Currently allocated     0.00E+00 Mbytes, locked:    0 /   0

     iteration #  2     ecut=    65.00 Ry     beta= 0.40
     Davidson diagonalization with overlap

---- Real-time Memory Report at c_bands before calling an iterative solver
         13667 MiB given to the printing process from OS
             0 MiB allocation reported by mallinfo(arena+hblkhd)
        471104 MiB available memory on the node where the printing process lives
     GPU memory used/free/total (MiB): 7734 / 57210 / 64944
------------------
     ethr =  1.00E-02,  avg # of iterations =  9.7

     =================== HUBBARD OCCUPATIONS ===================
     ------------------------ ATOM    1 ------------------------
     Tr[ns(  1)] (up, down, total) =   0.07638  0.06917  0.14554
     Atomic magnetic moment for atom   1 =   0.00721
     SPIN  1
     eigenvalues:
       0.005  0.006  0.010  0.027  0.030
     eigenvectors (columns):
      -0.424 -0.515  0.077 -0.271 -0.690
       0.124  0.285 -0.768  0.280 -0.485
       0.264  0.638  0.381 -0.449 -0.419
      -0.354  0.147 -0.476 -0.717  0.336
       0.781 -0.474 -0.181 -0.364 -0.003
     occupation matrix ns (before diag.):
       0.019  0.006  0.010 -0.002  0.002
       0.006  0.015  0.001 -0.007 -0.002
       0.010  0.001  0.015  0.003  0.003
      -0.002 -0.007  0.003  0.020  0.006
       0.002 -0.002  0.003  0.006  0.008
     SPIN  2
     eigenvalues:
       0.004  0.005  0.009  0.025  0.027
     eigenvectors (columns):
      -0.370 -0.561  0.061  0.197  0.711
       0.083  0.301 -0.783 -0.317  0.435
       0.159  0.672  0.369  0.410  0.468
      -0.363  0.086 -0.468  0.748 -0.288
       0.836 -0.368 -0.169  0.365  0.058
     occupation matrix ns (before diag.):
       0.017  0.006  0.009 -0.002  0.003
       0.006  0.014  0.001 -0.006 -0.001
       0.009  0.001  0.014  0.002  0.003
      -0.002 -0.006  0.002  0.019  0.006
       0.003 -0.001  0.003  0.006  0.007
     ------------------------ ATOM    2 ------------------------
     Tr[ns(  2)] (up, down, total) =   0.07638  0.06917  0.14554
     Atomic magnetic moment for atom   2 =   0.00721
     SPIN  1
     eigenvalues:
       0.005  0.006  0.010  0.027  0.030
     eigenvectors (columns):
      -0.424 -0.515  0.077 -0.271 -0.690
       0.124  0.285 -0.768  0.280 -0.485
       0.264  0.638  0.381 -0.449 -0.419
      -0.354  0.147 -0.476 -0.717  0.336
       0.781 -0.474 -0.181 -0.364 -0.003
     occupation matrix ns (before diag.):
       0.019  0.006  0.010 -0.002  0.002
       0.006  0.015  0.001 -0.007 -0.002
       0.010  0.001  0.015  0.003  0.003
      -0.002 -0.007  0.003  0.020  0.006
       0.002 -0.002  0.003  0.006  0.008
     SPIN  2
     eigenvalues:
       0.004  0.005  0.009  0.025  0.027
     eigenvectors (columns):
      -0.370 -0.561  0.061  0.197  0.711
       0.083  0.301 -0.783 -0.317  0.435
       0.159  0.672  0.369  0.410  0.468
      -0.363  0.086 -0.468  0.748 -0.288
       0.836 -0.368 -0.169  0.365  0.058
     occupation matrix ns (before diag.):
       0.017  0.006  0.009 -0.002  0.003
       0.006  0.014  0.001 -0.006 -0.001
       0.009  0.001  0.014  0.002  0.003
      -0.002 -0.006  0.002  0.019  0.006
       0.003 -0.001  0.003  0.006  0.007

     Number of occupied Hubbard levels =    0.2911

     negative rho (up, down):  1.508E+01 1.103E+01

     HUBBARD ENERGY =    0.7752  (Ry)

     total cpu time spent up to now is      273.5 secs

     total energy              =   -1499.08603269 Ry
     estimated scf accuracy    <     294.30235340 Ry

     total magnetization       =    -1.24 Bohr mag/cell
     absolute magnetization    =     2.69 Bohr mag/cell
[tb_dev] Currently allocated     0.00E+00 Mbytes, locked:    0 /   0
[tb_pin] Currently allocated     0.00E+00 Mbytes, locked:    0 /   0

     iteration #  3     ecut=    65.00 Ry     beta= 0.40
     Davidson diagonalization with overlap

---- Real-time Memory Report at c_bands before calling an iterative solver
         13682 MiB given to the printing process from OS
             0 MiB allocation reported by mallinfo(arena+hblkhd)
        470750 MiB available memory on the node where the printing process lives
     GPU memory used/free/total (MiB): 7734 / 57210 / 64944
------------------
     ethr =  1.00E-02,  avg # of iterations =  7.0

     =================== HUBBARD OCCUPATIONS ===================
     ------------------------ ATOM    1 ------------------------
     Tr[ns(  1)] (up, down, total) =   4.93455  4.92145  9.85600
     Atomic magnetic moment for atom   1 =   0.01310
     SPIN  1
     eigenvalues:
       0.979  0.985  0.988  0.990  0.992
     eigenvectors (columns):
      -0.213  0.591 -0.267 -0.719 -0.133
       0.207  0.511  0.117  0.166  0.809
      -0.350  0.569  0.276  0.547 -0.422
      -0.818 -0.200 -0.374  0.150  0.359
      -0.347 -0.160  0.836 -0.366  0.144
     occupation matrix ns (before diag.):
       0.988 -0.001 -0.002 -0.002 -0.000
      -0.001  0.990 -0.001  0.003  0.001
      -0.002 -0.001  0.987 -0.003 -0.001
      -0.002  0.003 -0.003  0.982 -0.003
      -0.000  0.001 -0.001 -0.003  0.987
     SPIN  2
     eigenvalues:
       0.976  0.982  0.986  0.988  0.989
     eigenvectors (columns):
      -0.297 -0.494  0.632  0.510 -0.091
       0.077 -0.540 -0.176 -0.390 -0.721
      -0.485 -0.505 -0.538 -0.021  0.469
      -0.761  0.338  0.260 -0.466 -0.146
      -0.301  0.309 -0.461  0.609 -0.481
     occupation matrix ns (before diag.):
       0.985 -0.001 -0.003 -0.002  0.001
      -0.001  0.986 -0.002  0.002  0.001
      -0.003 -0.002  0.983 -0.003 -0.001
      -0.002  0.002 -0.003  0.981 -0.003
       0.001  0.001 -0.001 -0.003  0.986
     ------------------------ ATOM    2 ------------------------
     Tr[ns(  2)] (up, down, total) =   4.93455  4.92145  9.85600
     Atomic magnetic moment for atom   2 =   0.01310
     SPIN  1
     eigenvalues:
       0.979  0.985  0.988  0.990  0.992
     eigenvectors (columns):
      -0.213  0.591 -0.267 -0.719 -0.133
       0.207  0.511  0.117  0.166  0.809
      -0.350  0.569  0.276  0.547 -0.422
      -0.818 -0.200 -0.374  0.150  0.359
      -0.347 -0.160  0.836 -0.366  0.144
     occupation matrix ns (before diag.):
       0.988 -0.001 -0.002 -0.002 -0.000
      -0.001  0.990 -0.001  0.003  0.001
      -0.002 -0.001  0.987 -0.003 -0.001
      -0.002  0.003 -0.003  0.982 -0.003
      -0.000  0.001 -0.001 -0.003  0.987
     SPIN  2
     eigenvalues:
       0.976  0.982  0.986  0.988  0.989
     eigenvectors (columns):
      -0.297 -0.494  0.632  0.510 -0.091
       0.077 -0.540 -0.176 -0.390 -0.721
      -0.485 -0.505 -0.538 -0.021  0.469
      -0.761  0.338  0.260 -0.466 -0.146
      -0.301  0.309 -0.461  0.609 -0.481
     occupation matrix ns (before diag.):
       0.985 -0.001 -0.003 -0.002  0.001
      -0.001  0.986 -0.002  0.002  0.001
      -0.003 -0.002  0.983 -0.003 -0.001
      -0.002  0.002 -0.003  0.981 -0.003
       0.001  0.001 -0.001 -0.003  0.986

     Number of occupied Hubbard levels =   19.7120

     negative rho (up, down):  8.869E+00 6.394E+00

     HUBBARD ENERGY =    0.8069  (Ry)

     total cpu time spent up to now is      326.7 secs

     total energy              =   -1501.30643488 Ry
     estimated scf accuracy    <     130.19585383 Ry

     total magnetization       =     0.07 Bohr mag/cell
     absolute magnetization    =     1.62 Bohr mag/cell
[tb_dev] Currently allocated     0.00E+00 Mbytes, locked:    0 /   0
[tb_pin] Currently allocated     0.00E+00 Mbytes, locked:    0 /   0

     iteration #  4     ecut=    65.00 Ry     beta= 0.40
     Davidson diagonalization with overlap

---- Real-time Memory Report at c_bands before calling an iterative solver
         13698 MiB given to the printing process from OS
             0 MiB allocation reported by mallinfo(arena+hblkhd)
        470405 MiB available memory on the node where the printing process lives
     GPU memory used/free/total (MiB): 7734 / 57210 / 64944
------------------
     ethr =  1.00E-02,  avg # of iterations =  6.0

     =================== HUBBARD OCCUPATIONS ===================
     ------------------------ ATOM    1 ------------------------
     Tr[ns(  1)] (up, down, total) =   0.23565  0.20701  0.44266
     Atomic magnetic moment for atom   1 =   0.02864
     SPIN  1
     eigenvalues:
       0.021  0.027  0.028  0.070  0.090
     eigenvectors (columns):
      -0.601  0.173  0.295  0.713 -0.118
       0.019 -0.745 -0.396  0.285 -0.454
       0.596  0.342 -0.372  0.601  0.165
      -0.350 -0.286 -0.367  0.060  0.811
       0.401 -0.465  0.695  0.214  0.308
     occupation matrix ns (before diag.):
       0.048  0.012  0.019 -0.006  0.006
       0.012  0.043  0.003 -0.022 -0.007
       0.019  0.003  0.042  0.011  0.007
      -0.006 -0.022  0.011  0.068  0.017
       0.006 -0.007  0.007  0.017  0.034
     SPIN  2
     eigenvalues:
       0.017  0.021  0.023  0.065  0.082
     eigenvectors (columns):
      -0.614  0.122  0.279  0.722 -0.099
       0.055 -0.664 -0.526  0.302 -0.433
       0.609  0.424 -0.284  0.581  0.178
      -0.322 -0.213 -0.420  0.037  0.821
       0.382 -0.565  0.623  0.221  0.312
     occupation matrix ns (before diag.):
       0.043  0.012  0.019 -0.005  0.006
       0.012  0.037  0.003 -0.021 -0.006
       0.019  0.003  0.036  0.011  0.008
      -0.005 -0.021  0.011  0.062  0.016
       0.006 -0.006  0.008  0.016  0.029
     ------------------------ ATOM    2 ------------------------
     Tr[ns(  2)] (up, down, total) =   0.23565  0.20701  0.44266
     Atomic magnetic moment for atom   2 =   0.02864
     SPIN  1
     eigenvalues:
       0.021  0.027  0.028  0.070  0.090
     eigenvectors (columns):
      -0.601  0.173  0.295  0.713 -0.118
       0.019 -0.745 -0.396  0.285 -0.454
       0.596  0.342 -0.372  0.601  0.165
      -0.350 -0.286 -0.367  0.060  0.811
       0.401 -0.465  0.695  0.214  0.308
     occupation matrix ns (before diag.):
       0.048  0.012  0.019 -0.006  0.006
       0.012  0.043  0.003 -0.022 -0.007
       0.019  0.003  0.042  0.011  0.007
      -0.006 -0.022  0.011  0.068  0.017
       0.006 -0.007  0.007  0.017  0.034
     SPIN  2
     eigenvalues:
       0.017  0.021  0.023  0.065  0.082
     eigenvectors (columns):
      -0.614  0.122  0.279  0.722 -0.099
       0.055 -0.664 -0.526  0.302 -0.433
       0.609  0.424 -0.284  0.581  0.178
      -0.322 -0.213 -0.420  0.037  0.821
       0.382 -0.565  0.623  0.221  0.312
     occupation matrix ns (before diag.):
       0.043  0.012  0.019 -0.005  0.006
       0.012  0.037  0.003 -0.021 -0.006
       0.019  0.003  0.036  0.011  0.008
      -0.005 -0.021  0.011  0.062  0.016
       0.006 -0.006  0.008  0.016  0.029

     Number of occupied Hubbard levels =    0.8853

     negative rho (up, down):  3.591E+00 2.492E+00

     HUBBARD ENERGY =    0.8518  (Ry)

     total cpu time spent up to now is      366.4 secs

     total energy              =   -1521.28185473 Ry
     estimated scf accuracy    <      81.81230422 Ry

     total magnetization       =    -0.18 Bohr mag/cell
     absolute magnetization    =     1.34 Bohr mag/cell
[tb_dev] Currently allocated     0.00E+00 Mbytes, locked:    0 /   0
[tb_pin] Currently allocated     0.00E+00 Mbytes, locked:    0 /   0

     iteration #  5     ecut=    65.00 Ry     beta= 0.40
     Davidson diagonalization with overlap

---- Real-time Memory Report at c_bands before calling an iterative solver
         13713 MiB given to the printing process from OS
             0 MiB allocation reported by mallinfo(arena+hblkhd)
        470005 MiB available memory on the node where the printing process lives
     GPU memory used/free/total (MiB): 7734 / 57210 / 64944
------------------
     ethr =  1.00E-02,  avg # of iterations =  8.2

     =================== HUBBARD OCCUPATIONS ===================
     ------------------------ ATOM    1 ------------------------
     Tr[ns(  1)] (up, down, total) =   1.59098  0.96204  2.55301
     Atomic magnetic moment for atom   1 =   0.62894
     SPIN  1
     eigenvalues:
       0.139  0.171  0.185  0.504  0.592
     eigenvectors (columns):
       0.449  0.495 -0.381  0.109 -0.630
      -0.087  0.023 -0.657  0.593  0.456
      -0.221  0.700 -0.153 -0.531  0.394
      -0.392  0.487  0.514  0.577 -0.108
       0.767  0.163  0.368  0.146  0.479
     occupation matrix ns (before diag.):
       0.337 -0.095 -0.120  0.052 -0.135
      -0.095  0.381 -0.028  0.087  0.119
      -0.120 -0.028  0.329 -0.124  0.058
       0.052  0.087 -0.124  0.285  0.018
      -0.135  0.119  0.058  0.018  0.258
     SPIN  2
     eigenvalues:
       0.074  0.152  0.155  0.193  0.388
     eigenvectors (columns):
       0.115  0.476  0.823  0.286 -0.032
      -0.177  0.486 -0.039 -0.683 -0.514
      -0.350 -0.431  0.500 -0.538  0.390
      -0.361 -0.479  0.201  0.283 -0.721
       0.838 -0.349  0.174 -0.286 -0.252
     occupation matrix ns (before diag.):
       0.157 -0.003 -0.005  0.012 -0.009
      -0.003  0.231 -0.037  0.074  0.050
      -0.005 -0.037  0.191 -0.082  0.006
       0.012  0.074 -0.082  0.268  0.063
      -0.009  0.050  0.006  0.063  0.115
     ------------------------ ATOM    2 ------------------------
     Tr[ns(  2)] (up, down, total) =   1.59098  0.96204  2.55301
     Atomic magnetic moment for atom   2 =   0.62894
     SPIN  1
     eigenvalues:
       0.139  0.171  0.185  0.504  0.592
     eigenvectors (columns):
       0.449  0.495 -0.381  0.109 -0.630
      -0.087  0.023 -0.657  0.593  0.456
      -0.221  0.700 -0.153 -0.531  0.394
      -0.392  0.487  0.514  0.577 -0.108
       0.767  0.163  0.368  0.146  0.479
     occupation matrix ns (before diag.):
       0.337 -0.095 -0.120  0.052 -0.135
      -0.095  0.381 -0.028  0.087  0.119
      -0.120 -0.028  0.329 -0.124  0.058
       0.052  0.087 -0.124  0.285  0.018
      -0.135  0.119  0.058  0.018  0.258
     SPIN  2
     eigenvalues:
       0.074  0.152  0.155  0.193  0.388
     eigenvectors (columns):
       0.115  0.476  0.823  0.286 -0.032
      -0.177  0.486 -0.039 -0.683 -0.514
      -0.350 -0.431  0.500 -0.538  0.390
      -0.361 -0.479  0.201  0.283 -0.721
       0.838 -0.349  0.174 -0.286 -0.252
     occupation matrix ns (before diag.):
       0.157 -0.003 -0.005  0.012 -0.009
      -0.003  0.231 -0.037  0.074  0.050
      -0.005 -0.037  0.191 -0.082  0.006
       0.012  0.074 -0.082  0.268  0.063
      -0.009  0.050  0.006  0.063  0.115

     Number of occupied Hubbard levels =    5.1060

     negative rho (up, down):  1.072E+00 7.121E-01

     HUBBARD ENERGY =    0.8306  (Ry)

     total cpu time spent up to now is      406.3 secs

     total energy              =   -1519.83544493 Ry
     estimated scf accuracy    <      19.47372039 Ry

     total magnetization       =     0.89 Bohr mag/cell
     absolute magnetization    =     2.18 Bohr mag/cell
[tb_dev] Currently allocated     0.00E+00 Mbytes, locked:    0 /   0
[tb_pin] Currently allocated     0.00E+00 Mbytes, locked:    0 /   0

     iteration #  6     ecut=    65.00 Ry     beta= 0.40
     Davidson diagonalization with overlap

---- Real-time Memory Report at c_bands before calling an iterative solver
         13730 MiB given to the printing process from OS
             0 MiB allocation reported by mallinfo(arena+hblkhd)
        469875 MiB available memory on the node where the printing process lives
     GPU memory used/free/total (MiB): 7734 / 57210 / 64944
------------------
     ethr =  9.10E-03,  avg # of iterations =  5.5

     =================== HUBBARD OCCUPATIONS ===================
     ------------------------ ATOM    1 ------------------------
     Tr[ns(  1)] (up, down, total) =   4.15414  3.82385  7.97799
     Atomic magnetic moment for atom   1 =   0.33029
     SPIN  1
     eigenvalues:
       0.604  0.616  0.955  0.989  0.990
     eigenvectors (columns):
      -0.749  0.035 -0.135  0.012  0.648
      -0.320  0.413 -0.658 -0.127 -0.527
      -0.536 -0.261  0.549 -0.330 -0.484
       0.065 -0.805 -0.493 -0.322  0.022
      -0.213 -0.334 -0.068  0.878 -0.259
     occupation matrix ns (before diag.):
       0.772 -0.101 -0.149  0.027 -0.058
      -0.101  0.872 -0.013  0.121  0.024
      -0.149 -0.013  0.843 -0.056 -0.075
       0.027  0.121 -0.056  0.737 -0.096
      -0.058  0.024 -0.075 -0.096  0.929
     SPIN  2
     eigenvalues:
       0.563  0.570  0.874  0.891  0.925
     eigenvectors (columns):
      -0.712  0.158  0.623 -0.167  0.225
      -0.248  0.503 -0.474 -0.617 -0.284
      -0.605 -0.197 -0.340  0.542 -0.430
      -0.064 -0.779  0.090 -0.539 -0.303
      -0.246 -0.278 -0.512 -0.087  0.769
     occupation matrix ns (before diag.):
       0.712 -0.081 -0.131  0.021 -0.032
      -0.081  0.789 -0.016  0.124  0.013
      -0.131 -0.016  0.763 -0.057 -0.081
       0.021  0.124 -0.057  0.698 -0.082
      -0.032  0.013 -0.081 -0.082  0.862
     ------------------------ ATOM    2 ------------------------
     Tr[ns(  2)] (up, down, total) =   4.15414  3.82385  7.97799
     Atomic magnetic moment for atom   2 =   0.33029
     SPIN  1
     eigenvalues:
       0.604  0.616  0.955  0.989  0.990
     eigenvectors (columns):
      -0.749  0.035 -0.135  0.012  0.648
      -0.320  0.413 -0.658 -0.127 -0.527
      -0.536 -0.261  0.549 -0.330 -0.484
       0.065 -0.805 -0.493 -0.322  0.022
      -0.213 -0.334 -0.068  0.878 -0.259
     occupation matrix ns (before diag.):
       0.772 -0.101 -0.149  0.027 -0.058
      -0.101  0.872 -0.013  0.121  0.024
      -0.149 -0.013  0.843 -0.056 -0.075
       0.027  0.121 -0.056  0.737 -0.096
      -0.058  0.024 -0.075 -0.096  0.929
     SPIN  2
     eigenvalues:
       0.563  0.570  0.874  0.891  0.925
     eigenvectors (columns):
      -0.712  0.158  0.623 -0.167  0.225
      -0.248  0.503 -0.474 -0.617 -0.284
      -0.605 -0.197 -0.340  0.542 -0.430
      -0.064 -0.779  0.090 -0.539 -0.303
      -0.246 -0.278 -0.512 -0.087  0.769
     occupation matrix ns (before diag.):
       0.712 -0.081 -0.131  0.021 -0.032
      -0.081  0.789 -0.016  0.124  0.013
      -0.131 -0.016  0.763 -0.057 -0.081
       0.021  0.124 -0.057  0.698 -0.082
      -0.032  0.013 -0.081 -0.082  0.862

     Number of occupied Hubbard levels =   15.9560

     negative rho (up, down):  9.165E-01 6.067E-01

     HUBBARD ENERGY =    0.8389  (Ry)

     total cpu time spent up to now is      441.8 secs

     total energy              =   -1521.39820936 Ry
     estimated scf accuracy    <      16.95751029 Ry

     total magnetization       =     1.16 Bohr mag/cell
     absolute magnetization    =     1.74 Bohr mag/cell
[tb_dev] Currently allocated     0.00E+00 Mbytes, locked:    0 /   0
[tb_pin] Currently allocated     0.00E+00 Mbytes, locked:    0 /   0

     iteration #  7     ecut=    65.00 Ry     beta= 0.40
     Davidson diagonalization with overlap

---- Real-time Memory Report at c_bands before calling an iterative solver
         13743 MiB given to the printing process from OS
             0 MiB allocation reported by mallinfo(arena+hblkhd)
        469724 MiB available memory on the node where the printing process lives
     GPU memory used/free/total (MiB): 7734 / 57210 / 64944
------------------
     ethr =  7.92E-03,  avg # of iterations =  2.0

     =================== HUBBARD OCCUPATIONS ===================
     ------------------------ ATOM    1 ------------------------
     Tr[ns(  1)] (up, down, total) =   3.60159  1.18615  4.78774
     Atomic magnetic moment for atom   1 =   2.41544
     SPIN  1
     eigenvalues:
       0.315  0.342  0.920  0.999  1.026
     eigenvectors (columns):
       0.730 -0.130  0.240  0.625 -0.047
       0.279 -0.447 -0.301 -0.356 -0.711
       0.569  0.169 -0.454 -0.416  0.518
       0.059  0.814 -0.308  0.186 -0.451
       0.250  0.303  0.742 -0.524 -0.144
     occupation matrix ns (before diag.):
       0.619 -0.171 -0.262  0.047 -0.113
      -0.171  0.821 -0.079  0.229  0.062
      -0.262 -0.079  0.750 -0.131 -0.106
       0.047  0.229 -0.131  0.559 -0.152
      -0.113  0.062 -0.106 -0.152  0.853
     SPIN  2
     eigenvalues:
       0.158  0.191  0.235  0.290  0.313
     eigenvectors (columns):
      -0.406 -0.420  0.015 -0.803 -0.116
       0.082  0.385 -0.803 -0.199 -0.402
       0.124  0.753  0.402 -0.474  0.176
      -0.337  0.080 -0.417 -0.001  0.841
       0.837 -0.320 -0.142 -0.301  0.295
     occupation matrix ns (before diag.):
       0.251  0.022  0.037 -0.017  0.031
       0.022  0.243 -0.014 -0.025 -0.006
       0.037 -0.014  0.223  0.012  0.015
      -0.017 -0.025  0.012  0.281  0.042
       0.031 -0.006  0.015  0.042  0.188
     ------------------------ ATOM    2 ------------------------
     Tr[ns(  2)] (up, down, total) =   3.60159  1.18615  4.78774
     Atomic magnetic moment for atom   2 =   2.41544
     SPIN  1
     eigenvalues:
       0.315  0.342  0.920  0.999  1.026
     eigenvectors (columns):
       0.730 -0.130  0.240  0.625 -0.047
       0.279 -0.447 -0.301 -0.356 -0.711
       0.569  0.169 -0.454 -0.416  0.518
       0.059  0.814 -0.308  0.186 -0.451
       0.250  0.303  0.742 -0.524 -0.144
     occupation matrix ns (before diag.):
       0.619 -0.171 -0.262  0.047 -0.113
      -0.171  0.821 -0.079  0.229  0.062
      -0.262 -0.079  0.750 -0.131 -0.106
       0.047  0.229 -0.131  0.559 -0.152
      -0.113  0.062 -0.106 -0.152  0.853
     SPIN  2
     eigenvalues:
       0.158  0.191  0.235  0.290  0.313
     eigenvectors (columns):
      -0.406 -0.420  0.015 -0.803 -0.116
       0.082  0.385 -0.803 -0.199 -0.402
       0.124  0.753  0.402 -0.474  0.176
      -0.337  0.080 -0.417 -0.001  0.841
       0.837 -0.320 -0.142 -0.301  0.295
     occupation matrix ns (before diag.):
       0.251  0.022  0.037 -0.017  0.031
       0.022  0.243 -0.014 -0.025 -0.006
       0.037 -0.014  0.223  0.012  0.015
      -0.017 -0.025  0.012  0.281  0.042
       0.031 -0.006  0.015  0.042  0.188

     Number of occupied Hubbard levels =    9.5755

     negative rho (up, down):  2.791E-01 1.802E-01

     HUBBARD ENERGY =    0.7512  (Ry)

     total cpu time spent up to now is      470.3 secs

     total energy              =   -1523.03745215 Ry
     estimated scf accuracy    <       1.85369517 Ry

     total magnetization       =     5.87 Bohr mag/cell
     absolute magnetization    =     6.11 Bohr mag/cell
[tb_dev] Currently allocated     0.00E+00 Mbytes, locked:    0 /   0
[tb_pin] Currently allocated     0.00E+00 Mbytes, locked:    0 /   0

     iteration #  8     ecut=    65.00 Ry     beta= 0.40
     Davidson diagonalization with overlap

---- Real-time Memory Report at c_bands before calling an iterative solver
         13756 MiB given to the printing process from OS
             0 MiB allocation reported by mallinfo(arena+hblkhd)
        469647 MiB available memory on the node where the printing process lives
     GPU memory used/free/total (MiB): 7734 / 57210 / 64944
------------------
     ethr =  8.66E-04,  avg # of iterations =  3.5

     =================== HUBBARD OCCUPATIONS ===================
     ------------------------ ATOM    1 ------------------------
     Tr[ns(  1)] (up, down, total) =   3.64443  0.99327  4.63770
     Atomic magnetic moment for atom   1 =   2.65115
     SPIN  1
     eigenvalues:
       0.318  0.346  0.993  0.994  0.994
     eigenvectors (columns):
      -0.741 -0.029 -0.013  0.666 -0.083
      -0.338 -0.399 -0.169 -0.300  0.779
      -0.541  0.240 -0.240 -0.648 -0.413
       0.050  0.818 -0.373  0.136  0.412
      -0.202  0.336  0.880 -0.167  0.211
     occupation matrix ns (before diag.):
       0.622 -0.177 -0.267  0.041 -0.095
      -0.177  0.813 -0.062  0.223  0.041
      -0.267 -0.062  0.758 -0.109 -0.126
       0.041  0.223 -0.109  0.558 -0.171
      -0.095  0.041 -0.126 -0.171  0.893
     SPIN  2
     eigenvalues:
       0.120  0.144  0.164  0.271  0.294
     eigenvectors (columns):
      -0.403 -0.451  0.022 -0.796 -0.003
       0.095  0.403 -0.762 -0.296 -0.401
       0.117  0.721  0.437 -0.457  0.259
      -0.341  0.102 -0.453  0.100  0.811
       0.836 -0.323 -0.149 -0.246  0.339
     occupation matrix ns (before diag.):
       0.221  0.031  0.047 -0.014  0.033
       0.031  0.190 -0.005 -0.045 -0.011
       0.047 -0.005  0.184  0.023  0.024
      -0.014 -0.045  0.023  0.245  0.046
       0.033 -0.011  0.024  0.046  0.152
     ------------------------ ATOM    2 ------------------------
     Tr[ns(  2)] (up, down, total) =   3.64443  0.99327  4.63770
     Atomic magnetic moment for atom   2 =   2.65115
     SPIN  1
     eigenvalues:
       0.318  0.346  0.993  0.994  0.994
     eigenvectors (columns):
      -0.741 -0.029 -0.013  0.666 -0.083
      -0.338 -0.399 -0.169 -0.300  0.779
      -0.541  0.240 -0.240 -0.648 -0.413
       0.050  0.818 -0.373  0.136  0.412
      -0.202  0.336  0.880 -0.167  0.211
     occupation matrix ns (before diag.):
       0.622 -0.177 -0.267  0.041 -0.095
      -0.177  0.813 -0.062  0.223  0.041
      -0.267 -0.062  0.758 -0.109 -0.126
       0.041  0.223 -0.109  0.558 -0.171
      -0.095  0.041 -0.126 -0.171  0.893
     SPIN  2
     eigenvalues:
       0.120  0.144  0.164  0.271  0.294
     eigenvectors (columns):
      -0.403 -0.451  0.022 -0.796 -0.003
       0.095  0.403 -0.762 -0.296 -0.401
       0.117  0.721  0.437 -0.457  0.259
      -0.341  0.102 -0.453  0.100  0.811
       0.836 -0.323 -0.149 -0.246  0.339
     occupation matrix ns (before diag.):
       0.221  0.031  0.047 -0.014  0.033
       0.031  0.190 -0.005 -0.045 -0.011
       0.047 -0.005  0.184  0.023  0.024
      -0.014 -0.045  0.023  0.245  0.046
       0.033 -0.011  0.024  0.046  0.152

     Number of occupied Hubbard levels =    9.2754

     negative rho (up, down):  8.284E-03 3.667E-03

     HUBBARD ENERGY =    0.6055  (Ry)

     total cpu time spent up to now is      501.6 secs

     total energy              =   -1523.30692778 Ry
     estimated scf accuracy    <       0.87554418 Ry

     total magnetization       =     6.00 Bohr mag/cell
     absolute magnetization    =     6.28 Bohr mag/cell
[tb_dev] Currently allocated     0.00E+00 Mbytes, locked:    0 /   0
[tb_pin] Currently allocated     0.00E+00 Mbytes, locked:    0 /   0

     iteration #  9     ecut=    65.00 Ry     beta= 0.40
     Davidson diagonalization with overlap

---- Real-time Memory Report at c_bands before calling an iterative solver
         13774 MiB given to the printing process from OS
             0 MiB allocation reported by mallinfo(arena+hblkhd)
        469523 MiB available memory on the node where the printing process lives
     GPU memory used/free/total (MiB): 7734 / 57210 / 64944
------------------
     ethr =  4.09E-04,  avg # of iterations = 10.2

     =================== HUBBARD OCCUPATIONS ===================
     ------------------------ ATOM    1 ------------------------
     Tr[ns(  1)] (up, down, total) =   3.82616  1.13554  4.96169
     Atomic magnetic moment for atom   1 =   2.69062
     SPIN  1
     eigenvalues:
       0.402  0.439  0.995  0.995  0.996
     eigenvectors (columns):
       0.740  0.039 -0.237 -0.628  0.008
       0.333  0.404 -0.013  0.413 -0.745
       0.548 -0.231 -0.023  0.646  0.478
      -0.037 -0.819 -0.375  0.042 -0.430
       0.200 -0.333  0.896 -0.126 -0.177
     occupation matrix ns (before diag.):
       0.669 -0.155 -0.235  0.034 -0.080
      -0.155  0.839 -0.056  0.191  0.035
      -0.235 -0.056  0.788 -0.094 -0.108
       0.034  0.191 -0.094  0.621 -0.147
      -0.080  0.035 -0.108 -0.147  0.910
     SPIN  2
     eigenvalues:
       0.134  0.171  0.189  0.307  0.334
     eigenvectors (columns):
      -0.387 -0.474  0.029 -0.790 -0.042
       0.033  0.408 -0.755 -0.265 -0.438
       0.071  0.731  0.413 -0.472  0.259
      -0.359  0.066 -0.471  0.076  0.800
       0.846 -0.265 -0.191 -0.279  0.316
     occupation matrix ns (before diag.):
       0.251  0.031  0.050 -0.019  0.040
       0.031  0.222 -0.007 -0.053 -0.011
       0.050 -0.007  0.215  0.026  0.028
      -0.019 -0.053  0.026  0.275  0.051
       0.040 -0.011  0.028  0.051  0.172
     ------------------------ ATOM    2 ------------------------
     Tr[ns(  2)] (up, down, total) =   3.82616  1.13554  4.96169
     Atomic magnetic moment for atom   2 =   2.69062
     SPIN  1
     eigenvalues:
       0.402  0.439  0.995  0.995  0.996
     eigenvectors (columns):
       0.740  0.039 -0.237 -0.628  0.008
       0.333  0.404 -0.013  0.413 -0.745
       0.548 -0.231 -0.023  0.646  0.478
      -0.037 -0.819 -0.375  0.042 -0.430
       0.200 -0.333  0.896 -0.126 -0.177
     occupation matrix ns (before diag.):
       0.669 -0.155 -0.235  0.034 -0.080
      -0.155  0.839 -0.056  0.191  0.035
      -0.235 -0.056  0.788 -0.094 -0.108
       0.034  0.191 -0.094  0.621 -0.147
      -0.080  0.035 -0.108 -0.147  0.910
     SPIN  2
     eigenvalues:
       0.134  0.171  0.189  0.307  0.334
     eigenvectors (columns):
      -0.387 -0.474  0.029 -0.790 -0.042
       0.033  0.408 -0.755 -0.265 -0.438
       0.071  0.731  0.413 -0.472  0.259
      -0.359  0.066 -0.471  0.076  0.800
       0.846 -0.265 -0.191 -0.279  0.316
     occupation matrix ns (before diag.):
       0.251  0.031  0.050 -0.019  0.040
       0.031  0.222 -0.007 -0.053 -0.011
       0.050 -0.007  0.215  0.026  0.028
      -0.019 -0.053  0.026  0.275  0.051
       0.040 -0.011  0.028  0.051  0.172

     Number of occupied Hubbard levels =    9.9234

     HUBBARD ENERGY =    0.5243  (Ry)

     total cpu time spent up to now is      543.8 secs

     WARNING: integrated charge=   214.00003282, expected=   214.00000000

     total energy              =   -1523.41580139 Ry
     estimated scf accuracy    <       0.16398642 Ry

     total magnetization       =     6.00 Bohr mag/cell
     absolute magnetization    =     6.42 Bohr mag/cell
[tb_dev] Currently allocated     0.00E+00 Mbytes, locked:    0 /   0
[tb_pin] Currently allocated     0.00E+00 Mbytes, locked:    0 /   0

     iteration # 10     ecut=    65.00 Ry     beta= 0.40
     Davidson diagonalization with overlap

---- Real-time Memory Report at c_bands before calling an iterative solver
         13793 MiB given to the printing process from OS
             0 MiB allocation reported by mallinfo(arena+hblkhd)
        466410 MiB available memory on the node where the printing process lives
     GPU memory used/free/total (MiB): 7734 / 57210 / 64944
------------------
     c_bands:  1 eigenvalues not converged
     ethr =  7.66E-05,  avg # of iterations =  8.9

     =================== HUBBARD OCCUPATIONS ===================
     ------------------------ ATOM    1 ------------------------
     Tr[ns(  1)] (up, down, total) =   3.88419  1.07913  4.96332
     Atomic magnetic moment for atom   1 =   2.80506
     SPIN  1
     eigenvalues:
       0.436  0.462  0.995  0.996  0.996
     eigenvectors (columns):
       0.742 -0.048 -0.577 -0.337 -0.011
       0.327 -0.407  0.245  0.334  0.745
       0.548  0.223  0.396  0.513 -0.479
      -0.025  0.820 -0.268  0.274  0.424
       0.202  0.331  0.615 -0.661  0.187
     occupation matrix ns (before diag.):
       0.686 -0.146 -0.222  0.031 -0.075
      -0.146  0.847 -0.052  0.183  0.035
      -0.222 -0.052  0.801 -0.090 -0.102
       0.031  0.183 -0.090  0.636 -0.142
      -0.075  0.035 -0.102 -0.142  0.914
     SPIN  2
     eigenvalues:
       0.123  0.151  0.171  0.307  0.327
     eigenvectors (columns):
      -0.355 -0.497  0.028 -0.790 -0.041
       0.017  0.418 -0.750 -0.275 -0.433
       0.038  0.725  0.433 -0.471  0.252
      -0.362  0.060 -0.464  0.067  0.804
       0.861 -0.220 -0.187 -0.271  0.319
     occupation matrix ns (before diag.):
       0.245  0.037  0.057 -0.018  0.040
       0.037  0.207 -0.005 -0.057 -0.010
       0.057 -0.005  0.201  0.027  0.032
      -0.018 -0.057  0.027  0.266  0.053
       0.040 -0.010  0.032  0.053  0.160
     ------------------------ ATOM    2 ------------------------
     Tr[ns(  2)] (up, down, total) =   3.88419  1.07913  4.96332
     Atomic magnetic moment for atom   2 =   2.80506
     SPIN  1
     eigenvalues:
       0.436  0.462  0.995  0.996  0.996
     eigenvectors (columns):
       0.742 -0.048 -0.577 -0.337 -0.011
       0.327 -0.407  0.245  0.334  0.745
       0.548  0.223  0.396  0.513 -0.479
      -0.025  0.820 -0.268  0.274  0.424
       0.202  0.331  0.615 -0.661  0.187
     occupation matrix ns (before diag.):
       0.686 -0.146 -0.222  0.031 -0.075
      -0.146  0.847 -0.052  0.183  0.035
      -0.222 -0.052  0.801 -0.090 -0.102
       0.031  0.183 -0.090  0.636 -0.142
      -0.075  0.035 -0.102 -0.142  0.914
     SPIN  2
     eigenvalues:
       0.123  0.151  0.171  0.307  0.327
     eigenvectors (columns):
      -0.355 -0.497  0.028 -0.790 -0.041
       0.017  0.418 -0.750 -0.275 -0.433
       0.038  0.725  0.433 -0.471  0.252
      -0.362  0.060 -0.464  0.067  0.804
       0.861 -0.220 -0.187 -0.271  0.319
     occupation matrix ns (before diag.):
       0.245  0.037  0.057 -0.018  0.040
       0.037  0.207 -0.005 -0.057 -0.010
       0.057 -0.005  0.201  0.027  0.032
      -0.018 -0.057  0.027  0.266  0.053
       0.040 -0.010  0.032  0.053  0.160

     Number of occupied Hubbard levels =    9.9266

     HUBBARD ENERGY =    0.4845  (Ry)

     total cpu time spent up to now is      585.2 secs

     WARNING: integrated charge=   214.00453279, expected=   214.00000000

     total energy              =   -1523.44868349 Ry
     estimated scf accuracy    <       0.03185730 Ry

     total magnetization       =     6.00 Bohr mag/cell
     absolute magnetization    =     6.60 Bohr mag/cell
[tb_dev] Currently allocated     0.00E+00 Mbytes, locked:    0 /   0
[tb_pin] Currently allocated     0.00E+00 Mbytes, locked:    0 /   0

     iteration # 11     ecut=    65.00 Ry     beta= 0.40
     Davidson diagonalization with overlap

---- Real-time Memory Report at c_bands before calling an iterative solver
         13793 MiB given to the printing process from OS
             0 MiB allocation reported by mallinfo(arena+hblkhd)
        462538 MiB available memory on the node where the printing process lives
     GPU memory used/free/total (MiB): 7734 / 57210 / 64944
------------------
     c_bands:  1 eigenvalues not converged
     c_bands:  1 eigenvalues not converged
     c_bands:  1 eigenvalues not converged
     c_bands:  1 eigenvalues not converged
     c_bands:  1 eigenvalues not converged
     c_bands:  1 eigenvalues not converged
     c_bands:  2 eigenvalues not converged
     c_bands:  1 eigenvalues not converged
     c_bands:  1 eigenvalues not converged
     c_bands:  1 eigenvalues not converged
     c_bands:  1 eigenvalues not converged
     c_bands:  1 eigenvalues not converged
     ethr =  1.49E-05,  avg # of iterations = 12.8
     Minimization algorithm failed to find Fermi energy: reverting to bisection
     Possible cause: smearing is larger than the electronic band-gap.

     =================== HUBBARD OCCUPATIONS ===================
     ------------------------ ATOM    1 ------------------------
     Tr[ns(  1)] (up, down, total) =   3.93350  1.03387  4.96737
     Atomic magnetic moment for atom   1 =   2.89963
     SPIN  1
     eigenvalues:
       0.461  0.486  0.995  0.996  0.996
     eigenvectors (columns):
       0.745  0.001  0.581  0.327  0.007
       0.352 -0.385 -0.255 -0.334 -0.742
       0.531  0.258 -0.402 -0.506  0.483
      -0.078  0.816  0.262 -0.280 -0.425
       0.180  0.344 -0.606  0.669 -0.186
     occupation matrix ns (before diag.):
       0.698 -0.140 -0.212  0.031 -0.072
      -0.140  0.854 -0.049  0.175  0.034
      -0.212 -0.049  0.811 -0.085 -0.097
       0.031  0.175 -0.085  0.653 -0.136
      -0.072  0.034 -0.097 -0.136  0.918
     SPIN  2
     eigenvalues:
       0.115  0.140  0.156  0.303  0.321
     eigenvectors (columns):
       0.350  0.503  0.004 -0.790  0.011
      -0.029 -0.463  0.720 -0.310 -0.413
      -0.033 -0.693 -0.481 -0.455  0.283
       0.360 -0.090  0.463  0.116  0.796
      -0.863  0.209  0.189 -0.244  0.340
     occupation matrix ns (before diag.):
       0.238  0.039  0.059 -0.016  0.040
       0.039  0.195 -0.004 -0.060 -0.012
       0.059 -0.004  0.192  0.029  0.033
      -0.016 -0.060  0.029  0.257  0.054
       0.040 -0.012  0.033  0.054  0.152
     ------------------------ ATOM    2 ------------------------
     Tr[ns(  2)] (up, down, total) =   3.93350  1.03387  4.96737
     Atomic magnetic moment for atom   2 =   2.89963
     SPIN  1
     eigenvalues:
       0.461  0.486  0.995  0.996  0.996
     eigenvectors (columns):
       0.745  0.001  0.581  0.327  0.007
       0.352 -0.385 -0.255 -0.334 -0.742
       0.531  0.258 -0.402 -0.506  0.483
      -0.078  0.816  0.262 -0.280 -0.425
       0.180  0.344 -0.606  0.669 -0.186
     occupation matrix ns (before diag.):
       0.698 -0.140 -0.212  0.031 -0.072
      -0.140  0.854 -0.049  0.175  0.034
      -0.212 -0.049  0.811 -0.085 -0.097
       0.031  0.175 -0.085  0.653 -0.136
      -0.072  0.034 -0.097 -0.136  0.918
     SPIN  2
     eigenvalues:
       0.115  0.140  0.156  0.303  0.321
     eigenvectors (columns):
       0.350  0.503  0.004 -0.790  0.011
      -0.029 -0.463  0.720 -0.310 -0.413
      -0.033 -0.693 -0.481 -0.455  0.283
       0.360 -0.090  0.463  0.116  0.796
      -0.863  0.209  0.189 -0.244  0.340
     occupation matrix ns (before diag.):
       0.238  0.039  0.059 -0.016  0.040
       0.039  0.195 -0.004 -0.060 -0.012
       0.059 -0.004  0.192  0.029  0.033
      -0.016 -0.060  0.029  0.257  0.054
       0.040 -0.012  0.033  0.054  0.152

     Number of occupied Hubbard levels =    9.9347

     HUBBARD ENERGY =    0.4482  (Ry)

     total cpu time spent up to now is      632.6 secs

     WARNING: integrated charge=   214.00152529, expected=   214.00000000

     total energy              =   -1523.46026374 Ry
     estimated scf accuracy    <       0.01347789 Ry

     total magnetization       =     6.02 Bohr mag/cell
     absolute magnetization    =     6.80 Bohr mag/cell
[tb_dev] Currently allocated     0.00E+00 Mbytes, locked:    0 /   0
[tb_pin] Currently allocated     0.00E+00 Mbytes, locked:    0 /   0

     iteration # 12     ecut=    65.00 Ry     beta= 0.40
     Davidson diagonalization with overlap

---- Real-time Memory Report at c_bands before calling an iterative solver
         13794 MiB given to the printing process from OS
             0 MiB allocation reported by mallinfo(arena+hblkhd)
        459857 MiB available memory on the node where the printing process lives
     GPU memory used/free/total (MiB): 7734 / 57210 / 64944
------------------
     c_bands:  1 eigenvalues not converged
     c_bands:  1 eigenvalues not converged
     ethr =  6.30E-06,  avg # of iterations =  3.5
     Minimization algorithm failed to find Fermi energy: reverting to bisection
     Possible cause: smearing is larger than the electronic band-gap.

     =================== HUBBARD OCCUPATIONS ===================
     ------------------------ ATOM    1 ------------------------
     Tr[ns(  1)] (up, down, total) =   3.98084  0.96101  4.94185
     Atomic magnetic moment for atom   1 =   3.01983
     SPIN  1
     eigenvalues:
       0.484  0.510  0.995  0.996  0.996
     eigenvectors (columns):
       0.747 -0.020  0.588  0.310 -0.009
       0.340 -0.395 -0.276 -0.343 -0.731
       0.536  0.243 -0.408 -0.486  0.501
      -0.056  0.818  0.247 -0.296 -0.424
       0.190  0.339 -0.592  0.680 -0.190
     occupation matrix ns (before diag.):
       0.710 -0.134 -0.202  0.029 -0.069
      -0.134  0.861 -0.047  0.167  0.032
      -0.202 -0.047  0.820 -0.081 -0.092
       0.029  0.167 -0.081  0.669 -0.129
      -0.069  0.032 -0.092 -0.129  0.921
     SPIN  2
     eigenvalues:
       0.103  0.124  0.136  0.290  0.308
     eigenvectors (columns):
       0.358  0.502 -0.011 -0.787 -0.016
      -0.035 -0.441  0.732 -0.299 -0.423
      -0.058 -0.699 -0.463 -0.472  0.266
       0.362 -0.088  0.461  0.086  0.801
      -0.858  0.237  0.192 -0.248  0.331
[...]
     atom   13 type  2   force =     8.00511909    5.82150999   -4.70746195
     atom   14 type  2   force =    10.26692308   -6.81016773   -0.00234989
     atom   15 type  2   force =     4.33996509   12.17608870    3.38935061
     atom   16 type  2   force =    -2.25005064   -9.63744293    4.70849683
     atom   17 type  2   force =    -6.93093257   -9.52065529   -2.38540962
     atom   18 type  2   force =     6.93093783    9.52064854    2.38539598
     atom   19 type  2   force =    -0.95547279    2.57116732   -8.46328554
     atom   20 type  2   force =    -9.52985651   -8.73309518   -3.39230584
     atom   21 type  2   force =    -2.85181537    3.69490960   -9.75355643
     atom   22 type  2   force =    -4.33996481  -12.17608293   -3.38934595
     atom   23 type  2   force =    -4.51319970    1.18979194    9.75491659
     atom   24 type  2   force =     4.51319889   -1.18979937   -9.75491409
     atom   25 type  2   force =    -8.15965225    5.41303035    0.00053076
     atom   26 type  2   force =     2.74225410    0.11884026   -8.46281226
     atom   27 type  2   force =     0.95547399   -2.57115922    8.46326713
     atom   28 type  2   force =    -8.00509913   -5.82157579    4.70762734
     atom   29 type  2   force =     9.52985347    8.73310046    3.39229334
     atom   30 type  2   force =    -2.74225364   -0.11884417    8.46281358
     atom   31 type  2   force =     2.85181571   -3.69490862    9.75355288
     atom   32 type  2   force =     6.07683435   10.08603599    2.38591464
     atom   33 type  2   force =   -10.26692284    6.81017127    0.00235193
     atom   34 type  2   force =     2.25005157    9.63744434   -4.70850326
     The local contribution  to forces
     atom    1 type  1   force =    -1.12206342    0.74219494   -0.00107336
     atom    2 type  1   force =     1.12206342   -0.74219494    0.00107336
     atom    3 type  3   force =    -2.88276735   -1.50753263    2.39180457
     atom    4 type  3   force =     0.26836007    3.24188548   -2.39185014
     atom    5 type  3   force =    -0.26836007   -3.24188548    2.39185014
     atom    6 type  3   force =    -2.67014938    3.07162991    3.23645500
     atom    7 type  3   force =     3.86754134   -1.26521024    3.23608291
     atom    8 type  3   force =    -3.86754134    1.26521024   -3.23608291
     atom    9 type  3   force =     2.88276735    1.50753263   -2.39180457
     atom   10 type  3   force =     2.67014938   -3.07162991   -3.23645500
     atom   11 type  2   force =     7.03081369    8.80780905    1.95352917
     atom   12 type  2   force =    -6.81331692    4.51994062    0.00054745
     atom   13 type  2   force =    -6.54673251   -5.42595841    5.63854487
     atom   14 type  2   force =    -8.84509849    5.86734825    0.00199716
     atom   15 type  2   force =    -2.74184357  -11.66642546   -3.79962532
     atom   16 type  2   force =     2.45276335    8.14008484   -5.63921719
     atom   17 type  2   force =     5.38232604    9.90255586    1.95303247
     atom   18 type  2   force =    -5.38232604   -9.90255586   -1.95303247
     atom   19 type  2   force =     0.50846162   -2.53975501    6.98850695
     atom   20 type  2   force =     9.68192371    7.06245539    3.80195303
     atom   21 type  2   force =     3.20180553   -2.73442915    7.69369277
     atom   22 type  2   force =     2.74184357   11.66642546    3.79962532
     atom   23 type  2   force =     3.76503521   -1.88582574   -7.69480619
     atom   24 type  2   force =    -3.76503521    1.88582574    7.69480619
     atom   25 type  2   force =     6.81331692   -4.51994062   -0.00054745
     atom   26 type  2   force =    -2.53932386   -0.51853460    6.98809788
     atom   27 type  2   force =    -0.50846162    2.53975501   -6.98850695
     atom   28 type  2   force =     6.54681853    5.42615490   -5.63806694
     atom   29 type  2   force =    -9.68192371   -7.06245539   -3.80195303
     atom   30 type  2   force =     2.53932386    0.51853460   -6.98809788
     atom   31 type  2   force =    -3.20180553    2.73442915   -7.69369277
     atom   32 type  2   force =    -7.03081369   -8.80780905   -1.95352917
     atom   33 type  2   force =     8.84509849   -5.86734825   -0.00199716
     atom   34 type  2   force =    -2.45276335   -8.14008484    5.63921719
     The core correction contribution to forces
     atom    1 type  1   force =    -0.00430473    0.00285707    0.00000052
     atom    2 type  1   force =     0.00430473   -0.00285707   -0.00000052
     atom    3 type  3   force =    -0.00442580    0.00783636    0.01024862
     atom    4 type  3   force =    -0.00893925    0.00103144   -0.01025081
     atom    5 type  3   force =     0.00893925   -0.00103144    0.01025081
     atom    6 type  3   force =     0.00283137    0.01664243   -0.02172033
     atom    7 type  3   force =     0.01422706    0.00908675   -0.02171938
     atom    8 type  3   force =    -0.01422706   -0.00908675    0.02171938
     atom    9 type  3   force =     0.00442580   -0.00783636   -0.01024862
     atom   10 type  3   force =    -0.00283137   -0.01664243    0.02172033
     atom   11 type  2   force =     0.00620027   -0.01062839   -0.00407620
     atom   12 type  2   force =     0.01147717   -0.00761361   -0.00000002
     atom   13 type  2   force =     0.01239091    0.00392412    0.00601492
     atom   14 type  2   force =     0.01188599   -0.00788183   -0.00000309
     atom   15 type  2   force =     0.01323184    0.00564263   -0.00316793
     atom   16 type  2   force =     0.00120277   -0.01294136   -0.00601371
     atom   17 type  2   force =    -0.01220292    0.00157955   -0.00407601
     atom   18 type  2   force =     0.01220292   -0.00157955    0.00407601
     atom   19 type  2   force =    -0.00425568    0.00007256   -0.01238097
     atom   20 type  2   force =    -0.00005188   -0.01438559    0.00316262
     atom   21 type  2   force =     0.00257406    0.00724105   -0.01538023
     atom   22 type  2   force =    -0.01323184   -0.00564263    0.00316793
     atom   23 type  2   force =    -0.00566534   -0.00518765    0.01538146
     atom   24 type  2   force =     0.00566534    0.00518765   -0.01538146
     atom   25 type  2   force =    -0.01147717    0.00761361    0.00000002
     atom   26 type  2   force =     0.00172307   -0.00389283   -0.01238079
     atom   27 type  2   force =     0.00425568   -0.00007256    0.01238097
     atom   28 type  2   force =    -0.01239064   -0.00392400   -0.00601343
     atom   29 type  2   force =     0.00005188    0.01438559   -0.00316262
     atom   30 type  2   force =    -0.00172307    0.00389283    0.01238079
     atom   31 type  2   force =    -0.00257406   -0.00724105    0.01538023
     atom   32 type  2   force =    -0.00620027    0.01062839    0.00407620
     atom   33 type  2   force =    -0.01188599    0.00788183    0.00000309
     atom   34 type  2   force =    -0.00120277    0.01294136    0.00601371
     The Hubbard contrib.    to forces
     atom    1 type  1   force =    -0.00510991    0.00339192    0.00000059
     atom    2 type  1   force =     0.00510991   -0.00339192   -0.00000059
     atom    3 type  3   force =    -0.00017915   -0.00011110    0.00013819
     atom    4 type  3   force =     0.00003271    0.00020826   -0.00013821
     atom    5 type  3   force =    -0.00003271   -0.00020826    0.00013821
     atom    6 type  3   force =    -0.00007736    0.00019373    0.00007689
     atom    7 type  3   force =     0.00020858    0.00000407    0.00007689
     atom    8 type  3   force =    -0.00020858   -0.00000407   -0.00007689
     atom    9 type  3   force =     0.00017915    0.00011110   -0.00013819
     atom   10 type  3   force =     0.00007736   -0.00019373   -0.00007689
     atom   11 type  2   force =     0.00297338    0.00089335    0.00141607
     atom   12 type  2   force =     0.00001588   -0.00001054    0.00000000
     atom   13 type  2   force =    -0.00143734   -0.00135575    0.00313778
     atom   14 type  2   force =     0.00001728   -0.00001147    0.00000000
     atom   15 type  2   force =     0.00054843   -0.00457880   -0.00127130
     atom   16 type  2   force =     0.00069037    0.00185143   -0.00313799
     atom   17 type  2   force =    -0.00033296    0.00308661    0.00141588
     atom   18 type  2   force =     0.00033296   -0.00308661   -0.00141588
     atom   19 type  2   force =    -0.00000513   -0.00000808    0.00001359
     atom   20 type  2   force =     0.00443127    0.00127487    0.00127164
     atom   21 type  2   force =    -0.00001485   -0.00001106    0.00000578
     atom   22 type  2   force =    -0.00054843    0.00457880    0.00127130
     atom   23 type  2   force =     0.00000441    0.00001798   -0.00000578
     atom   24 type  2   force =    -0.00000441   -0.00001798    0.00000578
     atom   25 type  2   force =    -0.00001588    0.00001054   -0.00000000
     atom   26 type  2   force =    -0.00000545   -0.00000787    0.00001359
     atom   27 type  2   force =     0.00000513    0.00000808   -0.00001359
     atom   28 type  2   force =     0.00143734    0.00135575   -0.00313778
     atom   29 type  2   force =    -0.00443127   -0.00127487   -0.00127164
     atom   30 type  2   force =     0.00000545    0.00000787   -0.00001359
     atom   31 type  2   force =     0.00001485    0.00001106   -0.00000578
     atom   32 type  2   force =    -0.00297338   -0.00089335   -0.00141607
     atom   33 type  2   force =    -0.00001728    0.00001147   -0.00000000
     atom   34 type  2   force =    -0.00069037   -0.00185143    0.00313799
     The SCF correction term to forces
     atom    1 type  1   force =    -0.00003020   -0.00001640   -0.00000815
     atom    2 type  1   force =     0.00003020    0.00001641    0.00000815
     atom    3 type  3   force =    -0.00000422   -0.00000313   -0.00000231
     atom    4 type  3   force =     0.00000511   -0.00000317    0.00000586
     atom    5 type  3   force =    -0.00000511    0.00000317   -0.00000586
     atom    6 type  3   force =    -0.00000098   -0.00000374    0.00000057
     atom    7 type  3   force =    -0.00000206    0.00001201   -0.00000530
     atom    8 type  3   force =     0.00000206   -0.00001201    0.00000529
     atom    9 type  3   force =     0.00000422    0.00000313    0.00000231
     atom   10 type  3   force =     0.00000098    0.00000374   -0.00000057
     atom   11 type  2   force =     0.00000413    0.00000415    0.00000442
     atom   12 type  2   force =    -0.00000244   -0.00000359    0.00000362
     atom   13 type  2   force =     0.00000233   -0.00000819   -0.00000359
     atom   14 type  2   force =     0.00000152   -0.00000746   -0.00000177
     atom   15 type  2   force =     0.00001302    0.00000006   -0.00000305
     atom   16 type  2   force =     0.00000751   -0.00000990    0.00000398
     atom   17 type  2   force =     0.00000931    0.00000214    0.00000610
     atom   18 type  2   force =    -0.00000931   -0.00000214   -0.00000610
     atom   19 type  2   force =    -0.00001814    0.00000190   -0.00000631
     atom   20 type  2   force =     0.00001258   -0.00000495    0.00000631
     atom   21 type  2   force =     0.00000018    0.00000386    0.00000782
     atom   22 type  2   force =    -0.00001302   -0.00000006    0.00000305
     atom   23 type  2   force =     0.00000594    0.00001141   -0.00001841
     atom   24 type  2   force =    -0.00000594   -0.00001141    0.00001841
     atom   25 type  2   force =     0.00000244    0.00000359   -0.00000362
     atom   26 type  2   force =     0.00000109   -0.00000773   -0.00000794
     atom   27 type  2   force =     0.00001814   -0.00000190    0.00000631
     atom   28 type  2   force =    -0.00000233    0.00000820    0.00000359
     atom   29 type  2   force =    -0.00001258    0.00000495   -0.00000631
     atom   30 type  2   force =    -0.00000109    0.00000773    0.00000794
     atom   31 type  2   force =    -0.00000018   -0.00000386   -0.00000782
     atom   32 type  2   force =    -0.00000413   -0.00000415   -0.00000442
     atom   33 type  2   force =    -0.00000152    0.00000746    0.00000177
     atom   34 type  2   force =    -0.00000751    0.00000990   -0.00000398

     Total force =     0.000376     Total SCF correction =     0.000084
     SCF correction compared to forces is large: reduce conv_thr to get better values


     Computing stress (Cartesian axis) and pressure


     negative rho (up, down):  0.000E+00 5.204E-05
     stres_hub    :    231.98s CPU    233.95s WALL (       2 calls)
     dprojdepsilo :    183.68s CPU    185.34s WALL (    4032 calls)
     dprojdeps1   :     61.36s CPU     61.67s WALL (    4032 calls)
     dprojdeps2   :     71.45s CPU     72.20s WALL (    4032 calls)
     dprojdeps3   :     50.84s CPU     51.45s WALL (    4032 calls)
          total   stress  (Ry/bohr**3)                   (kbar)     P=        0.12
   0.00000103  -0.00000031  -0.00000003            0.15       -0.05       -0.00
  -0.00000031   0.00000076   0.00000001           -0.05        0.11        0.00
  -0.00000003   0.00000001   0.00000073           -0.00        0.00        0.11

     kinetic stress (kbar)  18250.91     -1.22     19.83
                               -1.22  18249.84     29.93
                               19.83     29.93  18119.50

     local   stress (kbar) -17262.68   5131.16   -137.37
                             5131.16 -12934.15   -205.15
                             -137.37   -205.15 -22427.32

     nonloc. stress (kbar)   5127.54     -5.92    -15.63
                               -5.92   5122.55    -23.58
                              -15.63    -23.58   5183.30

     hartree stress (kbar)   9575.48  -2225.23    116.48
                            -2225.23   7698.28    174.80
                              116.48    174.80  11677.85

     exc-cor stress (kbar)  -2843.40     -0.09     -0.44
                               -0.09  -2843.48     -0.66
                               -0.44     -0.66  -2841.40

     corecor stress (kbar)  -1302.56      1.64      1.39
                                1.64  -1301.18      2.10
                                1.39      2.10  -1307.12

     ewald   stress (kbar) -11499.11  -2898.86     15.63
                            -2898.86 -13944.43     22.38
                               15.63     22.38  -8359.14

     hubbard stress (kbar)    -46.02     -1.54      0.11
                               -1.54    -47.32      0.17
                                0.11      0.17    -45.55

     DFT-D   stress (kbar)      0.00      0.00      0.00
                                0.00      0.00      0.00
                                0.00      0.00      0.00

     XDM     stress (kbar)      0.00      0.00      0.00
                                0.00      0.00      0.00
                                0.00      0.00      0.00

     dft-nl  stress (kbar)      0.00      0.00      0.00
                                0.00      0.00      0.00
                                0.00      0.00      0.00

     TS-vdW  stress (kbar)      0.00      0.00      0.00
                                0.00      0.00      0.00
                                0.00      0.00      0.00

     MDB     stress (kbar)      0.00      0.00      0.00
                                0.00      0.00      0.00
                                0.00      0.00      0.00

     3D-RISM stress (kbar)      0.00      0.00      0.00
                                0.00      0.00      0.00
                                0.00      0.00      0.00


     Writing all to output data dir ./out/aiida.save/ :
     XML data file, charge density, pseudopotentials, collected wavefunctions
 
     init_run     :     29.01s CPU     56.88s WALL (       2 calls)
     electrons    :   1792.72s CPU   1810.91s WALL (       2 calls)
     forces       :     95.42s CPU     96.41s WALL (       2 calls)
     stress       :    244.45s CPU    246.50s WALL (       2 calls)

     Called by init_run:
     wfcinit      :     20.79s CPU     47.87s WALL (       2 calls)
     wfcinit:atom :      0.50s CPU      0.50s WALL (     224 calls)
     wfcinit:wfcr :      5.47s CPU      5.51s WALL (     224 calls)
     potinit      :      1.17s CPU      1.46s WALL (       2 calls)
     hinit0       :      5.28s CPU      5.46s WALL (       2 calls)

     Called by electrons:
     c_bands      :   1352.99s CPU   1368.54s WALL (      47 calls)
     sum_band     :    408.54s CPU    410.55s WALL (      47 calls)
     v_of_rho     :      2.73s CPU      2.83s WALL (      49 calls)
     v_h          :      0.96s CPU      1.01s WALL (      49 calls)
     v_xc         :      1.92s CPU      2.01s WALL (      53 calls)
     newd         :      3.46s CPU      3.57s WALL (      49 calls)
     PAW_pot      :     11.57s CPU     11.63s WALL (      49 calls)
     mix_rho      :      3.96s CPU      4.08s WALL (      47 calls)

     Called by c_bands:
     init_us_2    :     24.05s CPU     24.22s WALL (   23520 calls)
     cegterg      :   1107.89s CPU   1114.07s WALL (   10814 calls)

     Called by sum_band:
     sum_band:wei :      1.28s CPU      1.29s WALL (      47 calls)
     sum_band:loo :    222.82s CPU    223.81s WALL (      47 calls)
     sum_band:buf :     99.77s CPU    100.26s WALL (   10528 calls)
     sum_band:ini :     10.80s CPU     10.87s WALL (   10528 calls)
     sum_band:cal :      0.60s CPU      0.60s WALL (   10528 calls)
     sum_band:bec :     18.54s CPU     18.63s WALL (   10528 calls)
     addusdens    :      7.28s CPU      7.34s WALL (      47 calls)
                                        7.34s GPU  (      47 calls)
     addusd:skk   :      0.07s CPU      0.07s WALL (     141 calls)
                                        0.07s GPU  (     141 calls)

     Called by *egterg:
     cdiaghg      :    266.73s CPU    268.51s WALL (   70799 calls)
                                      268.03s GPU  (   70799 calls)
     cegterg:over :     49.83s CPU     50.05s WALL (   59151 calls)
     cegterg:upda :     49.20s CPU     49.41s WALL (   59151 calls)
     cegterg:last :     26.42s CPU     26.54s WALL (   29211 calls)
     h_psi        :    634.61s CPU    638.76s WALL (   70189 calls)
     s_psi        :     63.83s CPU     64.26s WALL (   72429 calls)
     g_psi        :      2.73s CPU      2.74s WALL (   59151 calls)

     Called by h_psi:
     h_psi:calbec :      1.98s CPU      2.01s WALL (   70189 calls)
     vloc_psi     :    535.97s CPU    539.89s WALL (   70189 calls)
                                      539.43s GPU  (   70189 calls)
     add_vuspsi   :     62.76s CPU     63.39s WALL (   70189 calls)
     vhpsi        :     28.84s CPU     29.01s WALL (   70189 calls)

     General routines
     calbec       :    109.05s CPU    109.82s WALL ( 1638490 calls)
     fft          :      6.22s CPU      6.52s WALL (    1301 calls)
                                        0.29s GPU  (    1203 calls)
     ffts         :      0.69s CPU      0.69s WALL (     192 calls)
                                        0.01s GPU  (      94 calls)
     fftw         :      5.85s CPU    464.33s WALL (  674912 calls)
                                      459.86s GPU  (  674912 calls)
     interpolate  :      7.50s CPU      7.57s WALL (      98 calls)
 
     Parallel routines

     Hubbard U routines
     new_ns       :    172.27s CPU    173.17s WALL (      47 calls)
     vhpsi        :     28.84s CPU     29.01s WALL (   70189 calls)
     force_hub    :     87.25s CPU     88.16s WALL (       2 calls)
     stres_hub    :    231.98s CPU    233.95s WALL (       2 calls)

     PAW routines
     PAW_pot      :     11.57s CPU     11.63s WALL (      49 calls)
     PAW_symme    :      0.01s CPU      0.01s WALL (      95 calls)
 
     PWSCF        :  36m 5.62s CPU  37m 4.51s WALL

 
   This run was terminated on:  12: 9:24   8Nov2025            

=------------------------------------------------------------------------------=
   JOB DONE.
=------------------------------------------------------------------------------=
