
     Program PWSCF v.7.4.1 starts on 13Oct2025 at 21:39:28 

     This program is part of the open-source Quantum ESPRESSO suite
     for quantum simulation of materials; please cite
         "P. Giannozzi et al., J. Phys.:Condens. Matter 21 395502 (2009);
         "P. Giannozzi et al., J. Phys.:Condens. Matter 29 465901 (2017);
         "P. Giannozzi et al., J. Chem. Phys. 152 154105 (2020);
          URL http://www.quantum-espresso.org", 
     in publications or presentations arising from this work. More details at
     http://www.quantum-espresso.org/quote

     Parallel version (MPI & OpenMP), running on       1 processor cores
     Number of MPI processes:                 1
     Threads/MPI process:                     1

     MPI processes distributed on     1 nodes
     494135 MiB available memory on the printing compute node when the environment starts
 
     Reading input from pwscf.in
Warning: card &FCP ignored
Warning: card &RISM ignored

     Current dimensions of program PWSCF are:
     Max number of different atomic species (ntypx) = 10
     Max number of k-points (npk) =  40000
     Max angular momentum in pseudopotentials (lmaxx) =  4

     File ./out/aiida.update deleted, as requested

     File ./out/aiida.bfgs deleted, as requested
 check tnoseh fnoseh  F    1.000000000000000     
     Message from routine setup:
     using ibrav=0 with symmetry is DISCOURAGED, use correct ibrav instead
 
     Subspace diagonalization in iterative solution of the eigenvalue problem:
     a serial algorithm will be used

 
     G-vector sticks info
     --------------------
     sticks:   dense  smooth     PW     G-vecs:    dense   smooth      PW
     Sum        2241    1117    333               131435    46359    7337
 
     Using Slab Decomposition
 


     bravais-lattice index     =            0
     lattice parameter (alat)  =       7.6671  a.u.
     unit-cell volume          =     740.2115 (a.u.)^3
     number of atoms/cell      =            4
     number of atomic types    =            2
     number of electrons       =        38.00
     number of Kohn-Sham states=           23
     kinetic-energy cutoff     =      60.0000  Ry
     charge density cutoff     =     480.0000  Ry
     scf convergence threshold =      1.0E-09
     mixing beta               =       0.7000
     number of iterations used =            8  plain     mixing
     energy convergence thresh.=      5.0E-05
     force convergence thresh. =      1.0E-04
     press convergence thresh. =      5.0E-01
     Exchange-correlation= SLA  PW   PSX  PSC
                           (   1   4  10   8   0   0   0)
     nstep                     =          180


     GPU acceleration is ACTIVE.  1 visible GPUs per MPI rank
     GPU-aware MPI enabled


     GPU used by master process:

        Device Number: 0
        Device name: NVIDIA A100-SXM-64GB
        Compute capability : 80
        Ratio of single to double precision performance  : 2
        Memory Clock Rate (KHz): 1593000
        Memory Bus Width (bits): 4096
        Peak Memory Bandwidth (GB/s): ******
     Hubbard projectors: ortho-atomic
     Hubbard parameters of DFT+U (Dudarev formulation) in eV:
     U(V-3d) =  3.9000

     Internal variables: lda_plus_u = T, lda_plus_u_kind = 0

     celldm(1)=   7.667088  celldm(2)=   0.000000  celldm(3)=   0.000000
     celldm(4)=   0.000000  celldm(5)=   0.000000  celldm(6)=   0.000000

     crystal axes: (cart. coord. in units of alat)
               a(1) = (   1.000000  -0.000000   0.000000 )  
               a(2) = (   0.000000   1.000000  -0.000000 )  
               a(3) = (  -0.500000  -0.500000   1.642345 )  

     reciprocal axes: (cart. coord. in units 2 pi/alat)
               b(1) = (  1.000000 -0.000000  0.304443 )  
               b(2) = (  0.000000  1.000000  0.304443 )  
               b(3) = ( -0.000000  0.000000  0.608885 )  


     PseudoPot. # 1 for S  read from file:
     /leonardo_scratch/large/userexternal/nalghamd/mc_mace/GNoME-screening/2_space_group_DFT/pseudo_SSSP1.3_aiida/s_pbesol_v1.4.uspp.F.UPF
     MD5 check sum: 0ccfa86ec6eb59065d10aaae963ef2a7
     Pseudo is Ultrasoft + core correction, Zval =  6.0
     Generated by new atomic code, or converted to UPF format
     Using radial grid of  907 points,  6 beta functions with: 
                l(1) =   0
                l(2) =   0
                l(3) =   1
                l(4) =   1
                l(5) =   2
                l(6) =   2
     Q(r) pseudized with  8 coefficients,  rinner =    1.300   1.300   1.300
                                                       1.300   1.300

     PseudoPot. # 2 for V  read from file:
     /leonardo_scratch/large/userexternal/nalghamd/mc_mace/GNoME-screening/2_space_group_DFT/pseudo_SSSP1.3_aiida/v_pbesol_v1.4.uspp.F.UPF
     MD5 check sum: 72fa7d0034c41d8adc50bbc8c632b9f9
     Pseudo is Ultrasoft + core correction, Zval = 13.0
     Generated by new atomic code, or converted to UPF format
     Using radial grid of  853 points,  6 beta functions with: 
                l(1) =   0
                l(2) =   0
                l(3) =   1
                l(4) =   1
                l(5) =   2
                l(6) =   2
     Q(r) pseudized with  8 coefficients,  rinner =    1.100   1.100   1.100
                                                       1.100   1.100

     atomic species   valence    mass     pseudopotential
     S                 6.00    32.06500     S ( 1.00)
     V                13.00    50.94150     V ( 1.00)

     Starting magnetic structure 
     atomic species   magnetization
     S               0.100
     V               0.100

     16 Sym. Ops., with inversion, found


                                    s                        frac. trans.

      isym =  1     identity                                     

 cryst.   s( 1) = (     1          0          0      )
                  (     0          1          0      )
                  (     0          0          1      )

 cart.    s( 1) = (  1.0000000 -0.0000000  0.0000000 )
                  (  0.0000000  1.0000000  0.0000000 )
                  (  0.0000000 -0.0000000  1.0000000 )


      isym =  2     180 deg rotation - cart. axis [0,0,1]        

 cryst.   s( 2) = (    -1          0          0      )
                  (     0         -1          0      )
                  (     1          1          1      )

 cart.    s( 2) = ( -1.0000000 -0.0000000 -0.0000000 )
                  ( -0.0000000 -1.0000000  0.0000001 )
                  ( -0.0000000  0.0000000  1.0000000 )


      isym =  3     180 deg rotation - cart. axis [0,1,0]        

 cryst.   s( 3) = (    -1          0          0      )
                  (     0          1          0      )
                  (     0         -1         -1      )

 cart.    s( 3) = ( -1.0000000  0.0000000 -0.0000000 )
                  (  0.0000000  1.0000000 -0.0000001 )
                  ( -0.0000000 -0.0000000 -1.0000000 )


      isym =  4     180 deg rotation - cart. axis [1,0,0]        

 cryst.   s( 4) = (     1          0          0      )
                  (     0         -1          0      )
                  (    -1          0         -1      )

 cart.    s( 4) = (  1.0000000 -0.0000000  0.0000000 )
                  ( -0.0000000 -1.0000000 -0.0000000 )
                  (  0.0000000 -0.0000000 -1.0000000 )


      isym =  5     180 deg rotation - cart. axis [1,1,0]        

 cryst.   s( 5) = (     0          1          0      )
                  (     1          0          0      )
                  (    -1         -1         -1      )

 cart.    s( 5) = (  0.0000000  0.9999999 -0.0000000 )
                  (  1.0000001 -0.0000000 -0.0000000 )
                  ( -0.0000000 -0.0000000 -1.0000000 )


      isym =  6     180 deg rotation - cart. axis [1,-1,0]       

 cryst.   s( 6) = (     0         -1          0      )
                  (    -1          0          0      )
                  (     0          0         -1      )

 cart.    s( 6) = ( -0.0000000 -0.9999999  0.0000001 )
                  ( -1.0000001  0.0000000 -0.0000001 )
                  (  0.0000000 -0.0000000 -1.0000000 )


      isym =  7      90 deg rotation - cart. axis [0,0,-1]       

 cryst.   s( 7) = (     0         -1          0      )
                  (     1          0          0      )
                  (     0          1          1      )

 cart.    s( 7) = ( -0.0000000  0.9999999 -0.0000001 )
                  ( -1.0000001  0.0000000  0.0000000 )
                  (  0.0000000  0.0000000  1.0000000 )


      isym =  8      90 deg rotation - cart. axis [0,0,1]        

 cryst.   s( 8) = (     0          1          0      )
                  (    -1          0          0      )
                  (     1          0          1      )

 cart.    s( 8) = (  0.0000000 -0.9999999  0.0000000 )
                  (  1.0000001 -0.0000000  0.0000001 )
                  ( -0.0000000  0.0000000  1.0000000 )


      isym =  9     inversion                                    

 cryst.   s( 9) = (    -1          0          0      )
                  (     0         -1          0      )
                  (     0          0         -1      )

 cart.    s( 9) = ( -1.0000000  0.0000000 -0.0000000 )
                  ( -0.0000000 -1.0000000 -0.0000000 )
                  ( -0.0000000  0.0000000 -1.0000000 )


      isym = 10     inv. 180 deg rotation - cart. axis [0,0,1]   

 cryst.   s(10) = (     1          0          0      )
                  (     0          1          0      )
                  (    -1         -1         -1      )

 cart.    s(10) = (  1.0000000  0.0000000  0.0000000 )
                  (  0.0000000  1.0000000 -0.0000001 )
                  (  0.0000000 -0.0000000 -1.0000000 )


      isym = 11     inv. 180 deg rotation - cart. axis [0,1,0]   

 cryst.   s(11) = (     1          0          0      )
                  (     0         -1          0      )
                  (     0          1          1      )

 cart.    s(11) = (  1.0000000 -0.0000000  0.0000000 )
                  ( -0.0000000 -1.0000000  0.0000001 )
                  (  0.0000000  0.0000000  1.0000000 )


      isym = 12     inv. 180 deg rotation - cart. axis [1,0,0]   

 cryst.   s(12) = (    -1          0          0      )
                  (     0          1          0      )
                  (     1          0          1      )

 cart.    s(12) = ( -1.0000000  0.0000000 -0.0000000 )
                  (  0.0000000  1.0000000  0.0000000 )
                  ( -0.0000000  0.0000000  1.0000000 )


      isym = 13     inv. 180 deg rotation - cart. axis [1,1,0]   

 cryst.   s(13) = (     0         -1          0      )
                  (    -1          0          0      )
                  (     1          1          1      )

 cart.    s(13) = ( -0.0000000 -0.9999999  0.0000000 )
                  ( -1.0000001  0.0000000  0.0000000 )
                  (  0.0000000  0.0000000  1.0000000 )


      isym = 14     inv. 180 deg rotation - cart. axis [1,-1,0]  

 cryst.   s(14) = (     0          1          0      )
                  (     1          0          0      )
                  (     0          0          1      )

 cart.    s(14) = (  0.0000000  0.9999999 -0.0000001 )
                  (  1.0000001 -0.0000000  0.0000001 )
                  ( -0.0000000  0.0000000  1.0000000 )


      isym = 15     inv.  90 deg rotation - cart. axis [0,0,-1]  

 cryst.   s(15) = (     0          1          0      )
                  (    -1          0          0      )
                  (     0         -1         -1      )

 cart.    s(15) = (  0.0000000 -0.9999999  0.0000001 )
                  (  1.0000001 -0.0000000 -0.0000000 )
                  ( -0.0000000 -0.0000000 -1.0000000 )


      isym = 16     inv.  90 deg rotation - cart. axis [0,0,1]   

 cryst.   s(16) = (     0         -1          0      )
                  (     1          0          0      )
                  (    -1          0         -1      )

 cart.    s(16) = ( -0.0000000  0.9999999 -0.0000000 )
                  ( -1.0000001  0.0000000 -0.0000001 )
                  (  0.0000000 -0.0000000 -1.0000000 )


   Cartesian axes

     site n.     atom                  positions (alat units)
         1        V      tau(   1) = (   0.5000000   0.0000000   0.8211725  )
         2        V      tau(   2) = (  -0.0000000   0.5000001   0.8211725  )
         3        S      tau(   3) = (   0.4999995   0.4999996   0.5033239  )
         4        S      tau(   4) = (  -0.0000005  -0.0000004   1.1390211  )

   Crystallographic axes

     site n.     atom                  positions (cryst. coord.)
         1        V      tau(   1) = (  0.7500000  0.2500000  0.5000000  )
         2        V      tau(   2) = (  0.2500000  0.7500000  0.5000000  )
         3        S      tau(   3) = (  0.6532328  0.6532328  0.3064666  )
         4        S      tau(   4) = (  0.3467662  0.3467662  0.6935334  )

     number of k points=   135  Marzari-Vanderbilt smearing, width (Ry)=  0.0200
                       cart. coord. in units 2pi/alat
        k(    1) = (   0.0000000   0.0000000   0.0000000), wk =   0.0011574
        k(    2) = (  -0.0000000   0.0000000   0.1014809), wk =   0.0023148
        k(    3) = (  -0.0000000   0.0000000   0.2029618), wk =   0.0023148
        k(    4) = (   0.0000000  -0.0000000  -0.3044427), wk =   0.0011574
        k(    5) = (   0.0000000   0.0833333   0.0253702), wk =   0.0046296
        k(    6) = (  -0.0000000   0.0833333   0.1268511), wk =   0.0046296
        k(    7) = (  -0.0000000   0.0833333   0.2283321), wk =   0.0046296
        k(    8) = (   0.0000000   0.0833333  -0.2790725), wk =   0.0046296
        k(    9) = (   0.0000000   0.0833333  -0.1775916), wk =   0.0046296
        k(   10) = (   0.0000000   0.0833333  -0.0761107), wk =   0.0046296
        k(   11) = (   0.0000000   0.1666666   0.0507404), wk =   0.0092593
        k(   12) = (   0.0000000   0.1666666   0.1522214), wk =   0.0092593
        k(   13) = (  -0.0000000   0.1666666   0.2537023), wk =   0.0092593
        k(   14) = (   0.0000000   0.2500000   0.0761107), wk =   0.0046296
        k(   15) = (   0.0000000   0.2500000   0.1775916), wk =   0.0046296
        k(   16) = (   0.0000000   0.2500000   0.2790725), wk =   0.0046296
        k(   17) = (   0.0000000   0.2500000  -0.2283321), wk =   0.0046296
        k(   18) = (   0.0000000   0.2500000  -0.1268512), wk =   0.0046296
        k(   19) = (   0.0000000   0.2500000  -0.0253702), wk =   0.0046296
        k(   20) = (   0.0000000   0.3333333   0.1014809), wk =   0.0092593
        k(   21) = (   0.0000000   0.3333333   0.2029618), wk =   0.0092593
        k(   22) = (   0.0000000   0.3333333   0.3044427), wk =   0.0046296
        k(   23) = (   0.0000000   0.3333333  -0.0000000), wk =   0.0046296
        k(   24) = (   0.0000000   0.4166666   0.1268511), wk =   0.0046296
        k(   25) = (   0.0000000   0.4166666   0.2283320), wk =   0.0046296
        k(   26) = (   0.0000000   0.4166666   0.3298129), wk =   0.0046296
        k(   27) = (   0.0000000   0.4166666  -0.1775916), wk =   0.0046296
        k(   28) = (   0.0000000   0.4166666  -0.0761107), wk =   0.0046296
        k(   29) = (   0.0000000   0.4166666   0.0253702), wk =   0.0046296
        k(   30) = (  -0.0000000  -0.4999999  -0.1522213), wk =   0.0046296
        k(   31) = (  -0.0000000  -0.4999999  -0.0507404), wk =   0.0092593
        k(   32) = (   0.0833333   0.0833333   0.0507405), wk =   0.0046296
        k(   33) = (   0.0833333   0.0833333   0.1522214), wk =   0.0046296
        k(   34) = (   0.0833333   0.0833333   0.2537023), wk =   0.0046296
        k(   35) = (   0.0833333   0.1666666   0.0761107), wk =   0.0092593
        k(   36) = (   0.0833333   0.1666666   0.1775916), wk =   0.0092593
        k(   37) = (   0.0833333   0.1666666   0.2790725), wk =   0.0092593
        k(   38) = (   0.0833333   0.1666666  -0.2283321), wk =   0.0092593
        k(   39) = (   0.0833333   0.1666666  -0.1268511), wk =   0.0092593
        k(   40) = (   0.0833333   0.1666666  -0.0253702), wk =   0.0092593
        k(   41) = (   0.0833333   0.2500000   0.1014809), wk =   0.0092593
        k(   42) = (   0.0833333   0.2500000   0.2029618), wk =   0.0092593
        k(   43) = (   0.0833333   0.2500000   0.3044427), wk =   0.0046296
        k(   44) = (   0.0833333   0.2500000  -0.0000000), wk =   0.0046296
        k(   45) = (   0.0833333   0.3333333   0.1268511), wk =   0.0092593
        k(   46) = (   0.0833333   0.3333333   0.2283320), wk =   0.0092593
        k(   47) = (   0.0833333   0.3333333   0.3298130), wk =   0.0092593
        k(   48) = (   0.0833333   0.3333333  -0.1775916), wk =   0.0092593
        k(   49) = (   0.0833333   0.3333333  -0.0761107), wk =   0.0092593
        k(   50) = (   0.0833333   0.3333333   0.0253702), wk =   0.0092593
        k(   51) = (   0.0833333   0.4166666   0.1522214), wk =   0.0092593
        k(   52) = (   0.0833333   0.4166666   0.2537023), wk =   0.0092593
        k(   53) = (   0.0833333   0.4166666  -0.0507405), wk =   0.0092593
        k(   54) = (   0.0833333  -0.4999999  -0.1268511), wk =   0.0092593
        k(   55) = (   0.0833333  -0.4999999  -0.0253702), wk =   0.0092593
        k(   56) = (   0.0833333  -0.4999999   0.0761107), wk =   0.0092593
        k(   57) = (   0.0833333  -0.4166666  -0.1014809), wk =   0.0092593
        k(   58) = (   0.0833333  -0.4166666   0.0000000), wk =   0.0046296
        k(   59) = (   0.0833333  -0.4166666  -0.4059236), wk =   0.0092593
        k(   60) = (   0.0833333  -0.4166666  -0.3044427), wk =   0.0046296
        k(   61) = (   0.0833333  -0.2500000  -0.0507404), wk =   0.0092593
        k(   62) = (   0.0833333  -0.2500000   0.1522214), wk =   0.0092593
        k(   63) = (   0.0833333  -0.2500000  -0.3551832), wk =   0.0092593
        k(   64) = (   0.0833333  -0.0833333   0.0000000), wk =   0.0023148
        k(   65) = (   0.0833333  -0.0833333   0.1014809), wk =   0.0046296
        k(   66) = (   0.0833333  -0.0833333   0.2029618), wk =   0.0046296
        k(   67) = (   0.0833333  -0.0833333  -0.3044427), wk =   0.0023148
        k(   68) = (   0.1666667   0.1666666   0.1014809), wk =   0.0092593
        k(   69) = (   0.1666667   0.1666666   0.2029618), wk =   0.0092593
        k(   70) = (   0.1666667   0.1666666   0.3044427), wk =   0.0046296
        k(   71) = (   0.1666667   0.1666666  -0.0000000), wk =   0.0046296
        k(   72) = (   0.1666667   0.2500000   0.1268511), wk =   0.0092593
        k(   73) = (   0.1666667   0.2500000   0.2283320), wk =   0.0092593
        k(   74) = (   0.1666667   0.2500000   0.3298130), wk =   0.0092593
        k(   75) = (   0.1666667   0.2500000  -0.1775916), wk =   0.0092593
        k(   76) = (   0.1666667   0.2500000  -0.0761107), wk =   0.0092593
        k(   77) = (   0.1666667   0.2500000   0.0253702), wk =   0.0092593
        k(   78) = (   0.1666667   0.3333333   0.1522214), wk =   0.0185185
        k(   79) = (   0.1666667   0.3333333   0.2537023), wk =   0.0185185
        k(   80) = (   0.1666667   0.3333333  -0.0507405), wk =   0.0185185
        k(   81) = (   0.1666667   0.4166666   0.1775916), wk =   0.0092593
        k(   82) = (   0.1666667   0.4166666   0.2790725), wk =   0.0092593
        k(   83) = (   0.1666667   0.4166666   0.3805534), wk =   0.0092593
        k(   84) = (   0.1666667   0.4166666  -0.1268512), wk =   0.0092593
        k(   85) = (   0.1666667   0.4166666  -0.0253702), wk =   0.0092593
        k(   86) = (   0.1666667   0.4166666   0.0761107), wk =   0.0092593
        k(   87) = (   0.1666667  -0.4999999  -0.1014809), wk =   0.0185185
        k(   88) = (   0.1666667  -0.4999999   0.0000000), wk =   0.0092593
        k(   89) = (   0.2500000   0.2500000   0.1522214), wk =   0.0046296
        k(   90) = (   0.2500000   0.2500000   0.2537023), wk =   0.0046296
        k(   91) = (   0.2500000   0.2500000  -0.0507405), wk =   0.0046296
        k(   92) = (   0.2500000   0.3333333   0.1775916), wk =   0.0092593
        k(   93) = (   0.2500000   0.3333333   0.2790725), wk =   0.0092593
        k(   94) = (   0.2500000   0.3333333   0.3805534), wk =   0.0092593
        k(   95) = (   0.2500000   0.3333333  -0.1268512), wk =   0.0092593
        k(   96) = (   0.2500000   0.3333333  -0.0253702), wk =   0.0092593
        k(   97) = (   0.2500000   0.3333333   0.0761107), wk =   0.0092593
        k(   98) = (   0.2500000   0.4166666   0.2029618), wk =   0.0092593
        k(   99) = (   0.2500000   0.4166666   0.3044427), wk =   0.0046296
        k(  100) = (   0.2500000   0.4166666  -0.1014809), wk =   0.0092593
        k(  101) = (   0.2500000   0.4166666  -0.0000000), wk =   0.0046296
        k(  102) = (   0.2500000  -0.4999999  -0.0761107), wk =   0.0092593
        k(  103) = (   0.2500000  -0.4999999   0.0253703), wk =   0.0092593
        k(  104) = (   0.2500000  -0.4999999   0.1268512), wk =   0.0092593
        k(  105) = (   0.2500000  -0.4166666  -0.0507404), wk =   0.0092593
        k(  106) = (   0.2500000  -0.4166666   0.1522214), wk =   0.0092593
        k(  107) = (   0.2500000  -0.4166666  -0.3551832), wk =   0.0092593
        k(  108) = (   0.2500000  -0.2500000   0.0000000), wk =   0.0023148
        k(  109) = (   0.2500000  -0.2500000   0.1014809), wk =   0.0046296
        k(  110) = (   0.2500000  -0.2500000   0.2029618), wk =   0.0046296
        k(  111) = (   0.2500000  -0.2500000  -0.3044427), wk =   0.0023148
        k(  112) = (   0.3333333   0.3333333   0.2029618), wk =   0.0092593
        k(  113) = (   0.3333333   0.3333333   0.3044427), wk =   0.0046296
        k(  114) = (   0.3333333   0.3333333  -0.1014809), wk =   0.0092593
        k(  115) = (   0.3333333   0.3333333  -0.0000000), wk =   0.0046296
        k(  116) = (   0.3333333   0.4166666   0.2283320), wk =   0.0092593
        k(  117) = (   0.3333333   0.4166666   0.3298130), wk =   0.0092593
        k(  118) = (   0.3333333   0.4166666   0.4312939), wk =   0.0092593
        k(  119) = (   0.3333333   0.4166666  -0.0761107), wk =   0.0092593
        k(  120) = (   0.3333333   0.4166666   0.0253702), wk =   0.0092593
        k(  121) = (   0.3333333   0.4166666   0.1268511), wk =   0.0092593
        k(  122) = (   0.3333333  -0.4999999  -0.0507404), wk =   0.0185185
        k(  123) = (   0.3333333  -0.4999999   0.1522214), wk =   0.0092593
        k(  124) = (   0.4166667   0.4166666   0.2537023), wk =   0.0046296
        k(  125) = (   0.4166667   0.4166666   0.4566641), wk =   0.0046296
        k(  126) = (   0.4166667   0.4166666  -0.0507405), wk =   0.0046296
        k(  127) = (   0.4166667  -0.4999999  -0.0253702), wk =   0.0092593
        k(  128) = (   0.4166667  -0.4999999   0.0761107), wk =   0.0092593
        k(  129) = (   0.4166667  -0.4999999   0.1775916), wk =   0.0092593
        k(  130) = (   0.4166667  -0.4166666   0.0000000), wk =   0.0023148
        k(  131) = (   0.4166667  -0.4166666   0.1014809), wk =   0.0046296
        k(  132) = (   0.4166667  -0.4166666   0.2029618), wk =   0.0046296
        k(  133) = (   0.4166667  -0.4166666  -0.3044427), wk =   0.0023148
        k(  134) = (  -0.5000000  -0.4999999  -0.3044427), wk =   0.0023148
        k(  135) = (  -0.5000000  -0.4999999  -0.2029618), wk =   0.0046296

                       cryst. coord.
        k(    1) = (   0.0000000   0.0000000   0.0000000), wk =   0.0011574
        k(    2) = (  -0.0000000  -0.0000000   0.1666667), wk =   0.0023148
        k(    3) = (  -0.0000000  -0.0000000   0.3333333), wk =   0.0023148
        k(    4) = (   0.0000000  -0.0000000  -0.5000000), wk =   0.0011574
        k(    5) = (   0.0000000   0.0833333  -0.0000000), wk =   0.0046296
        k(    6) = (  -0.0000000   0.0833333   0.1666667), wk =   0.0046296
        k(    7) = (   0.0000000   0.0833333   0.3333333), wk =   0.0046296
        k(    8) = (   0.0000000   0.0833333  -0.5000000), wk =   0.0046296
        k(    9) = (   0.0000000   0.0833333  -0.3333333), wk =   0.0046296
        k(   10) = (   0.0000000   0.0833333  -0.1666667), wk =   0.0046296
        k(   11) = (   0.0000000   0.1666667  -0.0000000), wk =   0.0092593
        k(   12) = (   0.0000000   0.1666667   0.1666667), wk =   0.0092593
        k(   13) = (  -0.0000000   0.1666667   0.3333333), wk =   0.0092593
        k(   14) = (   0.0000000   0.2500000  -0.0000000), wk =   0.0046296
        k(   15) = (   0.0000000   0.2500000   0.1666667), wk =   0.0046296
        k(   16) = (  -0.0000000   0.2500000   0.3333333), wk =   0.0046296
        k(   17) = (   0.0000000   0.2500000  -0.5000000), wk =   0.0046296
        k(   18) = (   0.0000000   0.2500000  -0.3333333), wk =   0.0046296
        k(   19) = (   0.0000000   0.2500000  -0.1666667), wk =   0.0046296
        k(   20) = (   0.0000000   0.3333333  -0.0000000), wk =   0.0092593
        k(   21) = (   0.0000000   0.3333333   0.1666667), wk =   0.0092593
        k(   22) = (   0.0000000   0.3333333   0.3333333), wk =   0.0046296
        k(   23) = (   0.0000000   0.3333333  -0.1666667), wk =   0.0046296
        k(   24) = (   0.0000000   0.4166667  -0.0000000), wk =   0.0046296
        k(   25) = (   0.0000000   0.4166667   0.1666667), wk =   0.0046296
        k(   26) = (   0.0000000   0.4166667   0.3333333), wk =   0.0046296
        k(   27) = (   0.0000000   0.4166667  -0.5000000), wk =   0.0046296
        k(   28) = (   0.0000000   0.4166667  -0.3333333), wk =   0.0046296
        k(   29) = (   0.0000000   0.4166667  -0.1666667), wk =   0.0046296
        k(   30) = (  -0.0000000  -0.5000000   0.0000000), wk =   0.0046296
        k(   31) = (  -0.0000000  -0.5000000   0.1666667), wk =   0.0092593
        k(   32) = (   0.0833333   0.0833333  -0.0000000), wk =   0.0046296
        k(   33) = (   0.0833333   0.0833333   0.1666667), wk =   0.0046296
        k(   34) = (   0.0833333   0.0833333   0.3333333), wk =   0.0046296
        k(   35) = (   0.0833333   0.1666667   0.0000000), wk =   0.0092593
        k(   36) = (   0.0833333   0.1666667   0.1666667), wk =   0.0092593
        k(   37) = (   0.0833333   0.1666667   0.3333333), wk =   0.0092593
        k(   38) = (   0.0833333   0.1666667  -0.5000000), wk =   0.0092593
        k(   39) = (   0.0833333   0.1666667  -0.3333333), wk =   0.0092593
        k(   40) = (   0.0833333   0.1666667  -0.1666667), wk =   0.0092593
        k(   41) = (   0.0833333   0.2500000  -0.0000000), wk =   0.0092593
        k(   42) = (   0.0833333   0.2500000   0.1666667), wk =   0.0092593
        k(   43) = (   0.0833333   0.2500000   0.3333333), wk =   0.0046296
        k(   44) = (   0.0833333   0.2500000  -0.1666667), wk =   0.0046296
        k(   45) = (   0.0833333   0.3333333  -0.0000000), wk =   0.0092593
        k(   46) = (   0.0833333   0.3333333   0.1666667), wk =   0.0092593
        k(   47) = (   0.0833333   0.3333333   0.3333333), wk =   0.0092593
        k(   48) = (   0.0833333   0.3333333  -0.5000000), wk =   0.0092593
        k(   49) = (   0.0833333   0.3333333  -0.3333333), wk =   0.0092593
        k(   50) = (   0.0833333   0.3333333  -0.1666667), wk =   0.0092593
        k(   51) = (   0.0833333   0.4166667   0.0000000), wk =   0.0092593
        k(   52) = (   0.0833333   0.4166667   0.1666667), wk =   0.0092593
        k(   53) = (   0.0833333   0.4166667  -0.3333333), wk =   0.0092593
        k(   54) = (   0.0833333  -0.5000000   0.0000000), wk =   0.0092593
        k(   55) = (   0.0833333  -0.5000000   0.1666667), wk =   0.0092593
        k(   56) = (   0.0833333  -0.5000000   0.3333333), wk =   0.0092593
        k(   57) = (   0.0833333  -0.4166667  -0.0000000), wk =   0.0092593
        k(   58) = (   0.0833333  -0.4166667   0.1666667), wk =   0.0046296
        k(   59) = (   0.0833333  -0.4166667  -0.5000000), wk =   0.0092593
        k(   60) = (   0.0833333  -0.4166667  -0.3333333), wk =   0.0046296
        k(   61) = (   0.0833333  -0.2500000  -0.0000000), wk =   0.0092593
        k(   62) = (   0.0833333  -0.2500000   0.3333333), wk =   0.0092593
        k(   63) = (   0.0833333  -0.2500000  -0.5000000), wk =   0.0092593
        k(   64) = (   0.0833333  -0.0833333  -0.0000000), wk =   0.0023148
        k(   65) = (   0.0833333  -0.0833333   0.1666667), wk =   0.0046296
        k(   66) = (   0.0833333  -0.0833333   0.3333333), wk =   0.0046296
        k(   67) = (   0.0833333  -0.0833333  -0.5000000), wk =   0.0023148
        k(   68) = (   0.1666667   0.1666667  -0.0000000), wk =   0.0092593
        k(   69) = (   0.1666667   0.1666667   0.1666667), wk =   0.0092593
        k(   70) = (   0.1666667   0.1666667   0.3333333), wk =   0.0046296
        k(   71) = (   0.1666667   0.1666667  -0.1666667), wk =   0.0046296
        k(   72) = (   0.1666667   0.2500000  -0.0000000), wk =   0.0092593
        k(   73) = (   0.1666667   0.2500000   0.1666667), wk =   0.0092593
        k(   74) = (   0.1666667   0.2500000   0.3333333), wk =   0.0092593
        k(   75) = (   0.1666667   0.2500000  -0.5000000), wk =   0.0092593
        k(   76) = (   0.1666667   0.2500000  -0.3333333), wk =   0.0092593
        k(   77) = (   0.1666667   0.2500000  -0.1666667), wk =   0.0092593
        k(   78) = (   0.1666667   0.3333333   0.0000000), wk =   0.0185185
        k(   79) = (   0.1666667   0.3333333   0.1666667), wk =   0.0185185
        k(   80) = (   0.1666667   0.3333333  -0.3333333), wk =   0.0185185
        k(   81) = (   0.1666667   0.4166667  -0.0000000), wk =   0.0092593
        k(   82) = (   0.1666667   0.4166667   0.1666667), wk =   0.0092593
        k(   83) = (   0.1666667   0.4166667   0.3333333), wk =   0.0092593
        k(   84) = (   0.1666667   0.4166667  -0.5000000), wk =   0.0092593
        k(   85) = (   0.1666667   0.4166667  -0.3333333), wk =   0.0092593
        k(   86) = (   0.1666667   0.4166667  -0.1666667), wk =   0.0092593
        k(   87) = (   0.1666667  -0.5000000  -0.0000000), wk =   0.0185185
        k(   88) = (   0.1666667  -0.5000000   0.1666667), wk =   0.0092593
        k(   89) = (   0.2500000   0.2500000  -0.0000000), wk =   0.0046296
        k(   90) = (   0.2500000   0.2500000   0.1666667), wk =   0.0046296
        k(   91) = (   0.2500000   0.2500000  -0.3333333), wk =   0.0046296
        k(   92) = (   0.2500000   0.3333333  -0.0000000), wk =   0.0092593
        k(   93) = (   0.2500000   0.3333333   0.1666667), wk =   0.0092593
        k(   94) = (   0.2500000   0.3333333   0.3333333), wk =   0.0092593
        k(   95) = (   0.2500000   0.3333333  -0.5000000), wk =   0.0092593
        k(   96) = (   0.2500000   0.3333333  -0.3333333), wk =   0.0092593
        k(   97) = (   0.2500000   0.3333333  -0.1666667), wk =   0.0092593
        k(   98) = (   0.2500000   0.4166667   0.0000000), wk =   0.0092593
        k(   99) = (   0.2500000   0.4166667   0.1666667), wk =   0.0046296
        k(  100) = (   0.2500000   0.4166667  -0.5000000), wk =   0.0092593
        k(  101) = (   0.2500000   0.4166667  -0.3333333), wk =   0.0046296
        k(  102) = (   0.2500000  -0.5000000   0.0000000), wk =   0.0092593
        k(  103) = (   0.2500000  -0.5000000   0.1666667), wk =   0.0092593
        k(  104) = (   0.2500000  -0.5000000   0.3333333), wk =   0.0092593
        k(  105) = (   0.2500000  -0.4166667   0.0000000), wk =   0.0092593
        k(  106) = (   0.2500000  -0.4166667   0.3333333), wk =   0.0092593
        k(  107) = (   0.2500000  -0.4166667  -0.5000000), wk =   0.0092593
        k(  108) = (   0.2500000  -0.2500000   0.0000000), wk =   0.0023148
        k(  109) = (   0.2500000  -0.2500000   0.1666667), wk =   0.0046296
        k(  110) = (   0.2500000  -0.2500000   0.3333333), wk =   0.0046296
        k(  111) = (   0.2500000  -0.2500000  -0.5000000), wk =   0.0023148
        k(  112) = (   0.3333333   0.3333333  -0.0000000), wk =   0.0092593
        k(  113) = (   0.3333333   0.3333333   0.1666667), wk =   0.0046296
        k(  114) = (   0.3333333   0.3333333  -0.5000000), wk =   0.0092593
        k(  115) = (   0.3333333   0.3333333  -0.3333333), wk =   0.0046296
        k(  116) = (   0.3333333   0.4166667  -0.0000000), wk =   0.0092593
        k(  117) = (   0.3333333   0.4166667   0.1666667), wk =   0.0092593
        k(  118) = (   0.3333333   0.4166667   0.3333333), wk =   0.0092593
        k(  119) = (   0.3333333   0.4166667  -0.5000000), wk =   0.0092593
        k(  120) = (   0.3333333   0.4166667  -0.3333333), wk =   0.0092593
        k(  121) = (   0.3333333   0.4166667  -0.1666667), wk =   0.0092593
        k(  122) = (   0.3333333  -0.5000000   0.0000000), wk =   0.0185185
        k(  123) = (   0.3333333  -0.5000000   0.3333333), wk =   0.0092593
        k(  124) = (   0.4166667   0.4166667   0.0000000), wk =   0.0046296
        k(  125) = (   0.4166667   0.4166667   0.3333333), wk =   0.0046296
        k(  126) = (   0.4166667   0.4166667  -0.5000000), wk =   0.0046296
        k(  127) = (   0.4166667  -0.5000000   0.0000000), wk =   0.0092593
        k(  128) = (   0.4166667  -0.5000000   0.1666667), wk =   0.0092593
        k(  129) = (   0.4166667  -0.5000000   0.3333333), wk =   0.0092593
        k(  130) = (   0.4166667  -0.4166667   0.0000000), wk =   0.0023148
        k(  131) = (   0.4166667  -0.4166667   0.1666667), wk =   0.0046296
        k(  132) = (   0.4166667  -0.4166667   0.3333333), wk =   0.0046296
        k(  133) = (   0.4166667  -0.4166667  -0.5000000), wk =   0.0023148
        k(  134) = (  -0.5000000  -0.5000000   0.0000000), wk =   0.0023148
        k(  135) = (  -0.5000000  -0.5000000   0.1666667), wk =   0.0046296

     Dense  grid:   131435 G-vectors     FFT dimensions: (  54,  54,  96)

     Smooth grid:    46359 G-vectors     FFT dimensions: (  40,  40,  72)

     Dynamical RAM for                 wfc:       2.04 MB

     Dynamical RAM for     wfc (w. buffer):     552.48 MB

     Dynamical RAM for             U proj.:       0.89 MB

     Dynamical RAM for  U proj. (w. buff.):     240.21 MB

     Dynamical RAM for           str. fact:       4.01 MB

     Dynamical RAM for           local pot:       0.00 MB

     Dynamical RAM for          nlocal pot:       6.38 MB

     Dynamical RAM for                qrad:       7.03 MB

     Dynamical RAM for          rho,v,vnew:      24.85 MB

     Dynamical RAM for               rhoin:       8.28 MB

     Dynamical RAM for            rho*nmix:      64.18 MB

     Dynamical RAM for           G-vectors:       7.87 MB

     Dynamical RAM for          h,s,v(r/c):       0.10 MB

     Dynamical RAM for          <psi|beta>:       0.03 MB

     Dynamical RAM for                 psi:       4.08 MB

     Dynamical RAM for                hpsi:       4.08 MB

     Dynamical RAM for                spsi:       4.08 MB

     Dynamical RAM for      wfcinit/wfcrot:       4.09 MB

     Dynamical RAM for           addusdens:     379.05 MB

     Dynamical RAM for          addusforce:     383.07 MB

     Dynamical RAM for         addusstress:     406.12 MB

     Estimated static dynamical RAM per process >     869.95 MB

     Estimated max dynamical RAM per process >       1.31 GB

     Check: negative core charge=   -0.000004
     Generating pointlists ...
     new r_m :   0.2444 (alat units)  1.8738 (a.u.) for type    1
     new r_m :   0.2444 (alat units)  1.8738 (a.u.) for type    2

     Initial potential from superposition of free atoms

     starting charge      37.9976, renormalised to      38.0000

     negative rho (up, down):  4.234E-04 3.465E-04

     HUBBARD ENERGY =    0.3440  (Ry)

     STARTING HUBBARD OCCUPATIONS:

     =================== HUBBARD OCCUPATIONS ===================
     ------------------------ ATOM    1 ------------------------
     Tr[ns(  1)] (up, down, total) =   3.00000  0.00000  3.00000
     Atomic magnetic moment for atom   1 =   3.00000
     SPIN  1
     eigenvalues:
       0.600  0.600  0.600  0.600  0.600
     eigenvectors (columns):
       1.000  0.000  0.000  0.000  0.000
       0.000  1.000  0.000  0.000  0.000
       0.000  0.000  1.000  0.000  0.000
       0.000  0.000  0.000  1.000  0.000
       0.000  0.000  0.000  0.000  1.000
     occupation matrix ns (before diag.):
       0.600  0.000  0.000  0.000  0.000
       0.000  0.600  0.000  0.000  0.000
       0.000  0.000  0.600  0.000  0.000
       0.000  0.000  0.000  0.600  0.000
       0.000  0.000  0.000  0.000  0.600
     SPIN  2
     eigenvalues:
       0.000  0.000  0.000  0.000  0.000
     eigenvectors (columns):
       1.000  0.000  0.000  0.000  0.000
       0.000  1.000  0.000  0.000  0.000
       0.000  0.000  1.000  0.000  0.000
       0.000  0.000  0.000  1.000  0.000
       0.000  0.000  0.000  0.000  1.000
     occupation matrix ns (before diag.):
       0.000  0.000  0.000  0.000  0.000
       0.000  0.000  0.000  0.000  0.000
       0.000  0.000  0.000  0.000  0.000
       0.000  0.000  0.000  0.000  0.000
       0.000  0.000  0.000  0.000  0.000
     ------------------------ ATOM    2 ------------------------
     Tr[ns(  2)] (up, down, total) =   3.00000  0.00000  3.00000
     Atomic magnetic moment for atom   2 =   3.00000
     SPIN  1
     eigenvalues:
       0.600  0.600  0.600  0.600  0.600
     eigenvectors (columns):
       1.000  0.000  0.000  0.000  0.000
       0.000  1.000  0.000  0.000  0.000
       0.000  0.000  1.000  0.000  0.000
       0.000  0.000  0.000  1.000  0.000
       0.000  0.000  0.000  0.000  1.000
     occupation matrix ns (before diag.):
       0.600  0.000  0.000  0.000  0.000
       0.000  0.600  0.000  0.000  0.000
       0.000  0.000  0.600  0.000  0.000
       0.000  0.000  0.000  0.600  0.000
       0.000  0.000  0.000  0.000  0.600
     SPIN  2
     eigenvalues:
       0.000  0.000  0.000  0.000  0.000
     eigenvectors (columns):
       1.000  0.000  0.000  0.000  0.000
       0.000  1.000  0.000  0.000  0.000
       0.000  0.000  1.000  0.000  0.000
       0.000  0.000  0.000  1.000  0.000
       0.000  0.000  0.000  0.000  1.000
     occupation matrix ns (before diag.):
       0.000  0.000  0.000  0.000  0.000
       0.000  0.000  0.000  0.000  0.000
       0.000  0.000  0.000  0.000  0.000
       0.000  0.000  0.000  0.000  0.000
       0.000  0.000  0.000  0.000  0.000

     Number of occupied Hubbard levels =    6.0000

     Atomic wfc used for Hubbard projectors are orthogonalized

     Starting wfcs are   28 randomized atomic wfcs

     total cpu time spent up to now is        3.3 secs

     Self-consistent Calculation
[tb_dev] Currently allocated     5.95E-01 Mbytes, locked:    0 /   3
[tb_pin] Currently allocated     0.00E+00 Mbytes, locked:    0 /   0

     iteration #  1     ecut=    60.00 Ry     beta= 0.70
     Davidson diagonalization with overlap

---- Real-time Memory Report at c_bands before calling an iterative solver
          1340 MiB given to the printing process from OS
             0 MiB allocation reported by mallinfo(arena+hblkhd)
        493450 MiB available memory on the node where the printing process lives
     GPU memory used/free/total (MiB): 1746 / 63198 / 64944
------------------
     ethr =  1.00E-02,  avg # of iterations =  2.2

     =================== HUBBARD OCCUPATIONS ===================
     ------------------------ ATOM    1 ------------------------
     Tr[ns(  1)] (up, down, total) =   3.50782  0.42824  3.93607
     Atomic magnetic moment for atom   1 =   3.07958
     SPIN  1
     eigenvalues:
       0.641  0.672  0.672  0.675  0.847
     eigenvectors (columns):
      -0.000 -0.000 -0.000  0.000 -1.000
       0.000 -0.279 -0.960  0.000  0.000
       0.000 -0.960  0.279  0.000  0.000
      -1.000 -0.000 -0.000  0.000  0.000
       0.000  0.000  0.000  1.000  0.000
     occupation matrix ns (before diag.):
       0.847 -0.000 -0.000 -0.000 -0.000
      -0.000  0.672 -0.000  0.000  0.000
      -0.000 -0.000  0.672  0.000  0.000
      -0.000  0.000  0.000  0.641  0.000
      -0.000  0.000  0.000  0.000  0.675
     SPIN  2
     eigenvalues:
       0.052  0.073  0.086  0.086  0.132
     eigenvectors (columns):
      -1.000 -0.000  0.000 -0.000 -0.000
      -0.000 -0.000 -0.225  0.974  0.000
      -0.000 -0.000 -0.974 -0.225 -0.000
      -0.000 -0.000 -0.000 -0.000  1.000
      -0.000  1.000 -0.000  0.000  0.000
     occupation matrix ns (before diag.):
       0.052 -0.000 -0.000 -0.000 -0.000
      -0.000  0.086 -0.000  0.000  0.000
      -0.000 -0.000  0.086 -0.000  0.000
      -0.000  0.000 -0.000  0.132  0.000
      -0.000  0.000  0.000  0.000  0.073
     ------------------------ ATOM    2 ------------------------
     Tr[ns(  2)] (up, down, total) =   3.50782  0.42824  3.93607
     Atomic magnetic moment for atom   2 =   3.07958
     SPIN  1
     eigenvalues:
       0.641  0.672  0.672  0.675  0.847
     eigenvectors (columns):
      -0.000 -0.000 -0.000  0.000 -1.000
       0.000 -0.279 -0.960  0.000  0.000
       0.000 -0.960  0.279  0.000  0.000
      -1.000 -0.000 -0.000  0.000  0.000
       0.000  0.000  0.000  1.000  0.000
     occupation matrix ns (before diag.):
       0.847 -0.000 -0.000 -0.000 -0.000
      -0.000  0.672 -0.000  0.000  0.000
      -0.000 -0.000  0.672  0.000  0.000
      -0.000  0.000  0.000  0.641  0.000
      -0.000  0.000  0.000  0.000  0.675
     SPIN  2
     eigenvalues:
       0.052  0.073  0.086  0.086  0.132
     eigenvectors (columns):
      -1.000 -0.000  0.000 -0.000 -0.000
      -0.000 -0.000 -0.225  0.974  0.000
      -0.000 -0.000 -0.974 -0.225 -0.000
      -0.000 -0.000 -0.000 -0.000  1.000
      -0.000  1.000 -0.000  0.000  0.000
     occupation matrix ns (before diag.):
       0.052 -0.000 -0.000 -0.000 -0.000
      -0.000  0.086 -0.000  0.000  0.000
      -0.000 -0.000  0.086 -0.000  0.000
      -0.000  0.000 -0.000  0.132  0.000
      -0.000  0.000  0.000  0.000  0.073

     Number of occupied Hubbard levels =    7.8721

     Threshold (ethr) on eigenvalues was too large:
     Diagonalizing with lowered threshold

     Davidson diagonalization with overlap

---- Real-time Memory Report at c_bands before calling an iterative solver
          1360 MiB given to the printing process from OS
             0 MiB allocation reported by mallinfo(arena+hblkhd)
        493429 MiB available memory on the node where the printing process lives
     GPU memory used/free/total (MiB): 1748 / 63196 / 64944
------------------
     ethr =  6.06E-04,  avg # of iterations =  1.8

     =================== HUBBARD OCCUPATIONS ===================
     ------------------------ ATOM    1 ------------------------
     Tr[ns(  1)] (up, down, total) =   3.49253  0.42639  3.91892
     Atomic magnetic moment for atom   1 =   3.06614
     SPIN  1
     eigenvalues:
       0.641  0.669  0.670  0.670  0.842
     eigenvectors (columns):
       0.000  0.000 -0.000  0.000  1.000
      -0.000 -0.000 -0.279  0.960 -0.000
      -0.000 -0.000 -0.960 -0.279 -0.000
       1.000  0.000 -0.000  0.000 -0.000
      -0.000  1.000 -0.000  0.000 -0.000
     occupation matrix ns (before diag.):
       0.842 -0.000 -0.000 -0.000 -0.000
      -0.000  0.670 -0.000  0.000  0.000
      -0.000 -0.000  0.670  0.000  0.000
      -0.000  0.000  0.000  0.641  0.000
      -0.000  0.000  0.000  0.000  0.669
     SPIN  2
     eigenvalues:
       0.052  0.072  0.085  0.085  0.132
     eigenvectors (columns):
      -1.000 -0.000  0.000 -0.000 -0.000
      -0.000 -0.000 -0.226  0.974  0.000
      -0.000 -0.000 -0.974 -0.226 -0.000
      -0.000 -0.000 -0.000 -0.000  1.000
      -0.000  1.000 -0.000  0.000  0.000
     occupation matrix ns (before diag.):
       0.052 -0.000 -0.000 -0.000 -0.000
      -0.000  0.085 -0.000  0.000  0.000
      -0.000 -0.000  0.085 -0.000  0.000
      -0.000  0.000 -0.000  0.132  0.000
      -0.000  0.000  0.000  0.000  0.072
     ------------------------ ATOM    2 ------------------------
     Tr[ns(  2)] (up, down, total) =   3.49253  0.42639  3.91892
     Atomic magnetic moment for atom   2 =   3.06614
     SPIN  1
     eigenvalues:
       0.641  0.669  0.670  0.670  0.842
     eigenvectors (columns):
       0.000  0.000 -0.000  0.000  1.000
      -0.000 -0.000 -0.279  0.960 -0.000
      -0.000 -0.000 -0.960 -0.279 -0.000
       1.000  0.000 -0.000  0.000 -0.000
      -0.000  1.000 -0.000  0.000 -0.000
     occupation matrix ns (before diag.):
       0.842 -0.000 -0.000 -0.000 -0.000
      -0.000  0.670 -0.000  0.000  0.000
      -0.000 -0.000  0.670  0.000  0.000
      -0.000  0.000  0.000  0.641  0.000
      -0.000  0.000  0.000  0.000  0.669
     SPIN  2
     eigenvalues:
       0.052  0.072  0.085  0.085  0.132
     eigenvectors (columns):
      -1.000 -0.000  0.000 -0.000 -0.000
      -0.000 -0.000 -0.226  0.974  0.000
      -0.000 -0.000 -0.974 -0.226 -0.000
      -0.000 -0.000 -0.000 -0.000  1.000
      -0.000  1.000 -0.000  0.000  0.000
     occupation matrix ns (before diag.):
       0.052 -0.000 -0.000 -0.000 -0.000
      -0.000  0.085 -0.000  0.000  0.000
      -0.000 -0.000  0.085 -0.000  0.000
      -0.000  0.000 -0.000  0.132  0.000
      -0.000  0.000  0.000  0.000  0.072

     Number of occupied Hubbard levels =    7.8378

     negative rho (up, down):  0.000E+00 3.121E-03

     HUBBARD ENERGY =    0.4046  (Ry)

     total cpu time spent up to now is        9.1 secs

     total energy              =    -337.63086422 Ry
     estimated scf accuracy    <       0.23151936 Ry

     total magnetization       =     5.96 Bohr mag/cell
     absolute magnetization    =     6.17 Bohr mag/cell
[tb_dev] Currently allocated     0.00E+00 Mbytes, locked:    0 /   0
[tb_pin] Currently allocated     0.00E+00 Mbytes, locked:    0 /   0

     iteration #  2     ecut=    60.00 Ry     beta= 0.70
     Davidson diagonalization with overlap

---- Real-time Memory Report at c_bands before calling an iterative solver
          1366 MiB given to the printing process from OS
             0 MiB allocation reported by mallinfo(arena+hblkhd)
        493424 MiB available memory on the node where the printing process lives
     GPU memory used/free/total (MiB): 1778 / 63166 / 64944
------------------
     ethr =  6.09E-04,  avg # of iterations =  4.5

     =================== HUBBARD OCCUPATIONS ===================
     ------------------------ ATOM    1 ------------------------
     Tr[ns(  1)] (up, down, total) =   3.42136  0.33121  3.75257
     Atomic magnetic moment for atom   1 =   3.09015
     SPIN  1
     eigenvalues:
       0.614  0.632  0.662  0.662  0.851
     eigenvectors (columns):
      -0.000  0.000 -0.000 -0.000  1.000
       0.000 -0.000 -0.274 -0.962 -0.000
       0.000 -0.000 -0.962  0.274 -0.000
      -1.000  0.000 -0.000 -0.000 -0.000
       0.000  1.000 -0.000 -0.000 -0.000
     occupation matrix ns (before diag.):
       0.851 -0.000 -0.000 -0.000 -0.000
      -0.000  0.662 -0.000  0.000  0.000
      -0.000 -0.000  0.662  0.000  0.000
      -0.000  0.000  0.000  0.614  0.000
      -0.000  0.000  0.000  0.000  0.632
     SPIN  2
     eigenvalues:
       0.038  0.044  0.074  0.074  0.102
     eigenvectors (columns):
       1.000  0.000  0.000 -0.000  0.000
       0.000 -0.000 -0.229  0.973 -0.000
       0.000 -0.000 -0.973 -0.229  0.000
       0.000 -0.000  0.000 -0.000 -1.000
      -0.000  1.000 -0.000  0.000 -0.000
     occupation matrix ns (before diag.):
       0.038 -0.000 -0.000 -0.000  0.000
      -0.000  0.074 -0.000  0.000  0.000
      -0.000 -0.000  0.074 -0.000  0.000
      -0.000  0.000 -0.000  0.102  0.000
       0.000  0.000  0.000  0.000  0.044
     ------------------------ ATOM    2 ------------------------
     Tr[ns(  2)] (up, down, total) =   3.42136  0.33121  3.75257
     Atomic magnetic moment for atom   2 =   3.09015
     SPIN  1
     eigenvalues:
       0.614  0.632  0.662  0.662  0.851
     eigenvectors (columns):
      -0.000  0.000 -0.000 -0.000  1.000
       0.000 -0.000 -0.274 -0.962 -0.000
       0.000 -0.000 -0.962  0.274 -0.000
      -1.000  0.000 -0.000 -0.000 -0.000
       0.000  1.000 -0.000 -0.000 -0.000
     occupation matrix ns (before diag.):
       0.851 -0.000 -0.000 -0.000 -0.000
      -0.000  0.662 -0.000  0.000  0.000
      -0.000 -0.000  0.662  0.000  0.000
      -0.000  0.000  0.000  0.614  0.000
      -0.000  0.000  0.000  0.000  0.632
     SPIN  2
     eigenvalues:
       0.038  0.044  0.074  0.074  0.102
     eigenvectors (columns):
       1.000  0.000  0.000 -0.000  0.000
       0.000 -0.000 -0.229  0.973 -0.000
       0.000 -0.000 -0.973 -0.229  0.000
       0.000 -0.000  0.000 -0.000 -1.000
      -0.000  1.000 -0.000  0.000 -0.000
     occupation matrix ns (before diag.):
       0.038 -0.000 -0.000 -0.000  0.000
      -0.000  0.074 -0.000  0.000  0.000
      -0.000 -0.000  0.074 -0.000  0.000
      -0.000  0.000 -0.000  0.102  0.000
       0.000  0.000  0.000  0.000  0.044

     Number of occupied Hubbard levels =    7.5051

     negative rho (up, down):  0.000E+00 3.933E-03

     HUBBARD ENERGY =    0.3970  (Ry)

     total cpu time spent up to now is       14.0 secs

     total energy              =    -337.66683753 Ry
     estimated scf accuracy    <       0.09967213 Ry

     total magnetization       =     6.00 Bohr mag/cell
     absolute magnetization    =     6.45 Bohr mag/cell
[tb_dev] Currently allocated     0.00E+00 Mbytes, locked:    0 /   0
[tb_pin] Currently allocated     0.00E+00 Mbytes, locked:    0 /   0

     iteration #  3     ecut=    60.00 Ry     beta= 0.70
     Davidson diagonalization with overlap

---- Real-time Memory Report at c_bands before calling an iterative solver
          1375 MiB given to the printing process from OS
             0 MiB allocation reported by mallinfo(arena+hblkhd)
        493415 MiB available memory on the node where the printing process lives
     GPU memory used/free/total (MiB): 1778 / 63166 / 64944
------------------
     ethr =  2.62E-04,  avg # of iterations =  4.4

     =================== HUBBARD OCCUPATIONS ===================
     ------------------------ ATOM    1 ------------------------
     Tr[ns(  1)] (up, down, total) =   3.63240  0.38127  4.01366
     Atomic magnetic moment for atom   1 =   3.25113
     SPIN  1
     eigenvalues:
       0.657  0.657  0.715  0.715  0.889
     eigenvectors (columns):
      -0.000  0.000 -0.000 -0.000  1.000
       0.000 -0.000 -0.275 -0.961 -0.000
       0.000 -0.000 -0.961  0.275 -0.000
      -1.000  0.001 -0.000 -0.000 -0.000
       0.001  1.000 -0.000 -0.000 -0.000
     occupation matrix ns (before diag.):
       0.889 -0.000 -0.000 -0.000 -0.000
      -0.000  0.715 -0.000  0.000  0.000
      -0.000 -0.000  0.715  0.000  0.000
      -0.000  0.000  0.000  0.657  0.000
      -0.000  0.000  0.000  0.000  0.657
     SPIN  2
     eigenvalues:
       0.044  0.054  0.079  0.079  0.125
     eigenvectors (columns):
      -1.000  0.000  0.000 -0.000 -0.000
      -0.000 -0.000 -0.229  0.974  0.000
      -0.000 -0.000 -0.974 -0.229 -0.000
      -0.000 -0.000 -0.000 -0.000  1.000
       0.000  1.000 -0.000  0.000  0.000
     occupation matrix ns (before diag.):
       0.044 -0.000 -0.000 -0.000  0.000
      -0.000  0.079 -0.000  0.000  0.000
      -0.000 -0.000  0.079 -0.000  0.000
      -0.000  0.000 -0.000  0.125  0.000
       0.000  0.000  0.000  0.000  0.054
     ------------------------ ATOM    2 ------------------------
     Tr[ns(  2)] (up, down, total) =   3.63240  0.38127  4.01366
     Atomic magnetic moment for atom   2 =   3.25113
     SPIN  1
     eigenvalues:
       0.657  0.657  0.715  0.715  0.889
     eigenvectors (columns):
      -0.000  0.000 -0.000 -0.000  1.000
       0.000 -0.000 -0.275 -0.961 -0.000
       0.000 -0.000 -0.961  0.275 -0.000
      -1.000  0.001 -0.000 -0.000 -0.000
       0.001  1.000 -0.000 -0.000 -0.000
     occupation matrix ns (before diag.):
       0.889 -0.000 -0.000 -0.000 -0.000
      -0.000  0.715 -0.000  0.000  0.000
      -0.000 -0.000  0.715  0.000  0.000
      -0.000  0.000  0.000  0.657  0.000
      -0.000  0.000  0.000  0.000  0.657
     SPIN  2
     eigenvalues:
       0.044  0.054  0.079  0.079  0.125
     eigenvectors (columns):
      -1.000  0.000  0.000 -0.000 -0.000
      -0.000 -0.000 -0.229  0.974  0.000
      -0.000 -0.000 -0.974 -0.229 -0.000
      -0.000 -0.000 -0.000 -0.000  1.000
       0.000  1.000 -0.000  0.000  0.000
     occupation matrix ns (before diag.):
       0.044 -0.000 -0.000 -0.000  0.000
      -0.000  0.079 -0.000  0.000  0.000
      -0.000 -0.000  0.079 -0.000  0.000
      -0.000  0.000 -0.000  0.125  0.000
       0.000  0.000  0.000  0.000  0.054

     Number of occupied Hubbard levels =    8.0273

     negative rho (up, down):  0.000E+00 4.635E-03

     HUBBARD ENERGY =    0.3878  (Ry)

     total cpu time spent up to now is       18.5 secs

     total energy              =    -337.69926788 Ry
     estimated scf accuracy    <       0.07289656 Ry

     total magnetization       =     6.00 Bohr mag/cell
     absolute magnetization    =     6.88 Bohr mag/cell
[tb_dev] Currently allocated     0.00E+00 Mbytes, locked:    0 /   0
[tb_pin] Currently allocated     0.00E+00 Mbytes, locked:    0 /   0

     iteration #  4     ecut=    60.00 Ry     beta= 0.70
     Davidson diagonalization with overlap

---- Real-time Memory Report at c_bands before calling an iterative solver
          1381 MiB given to the printing process from OS
             0 MiB allocation reported by mallinfo(arena+hblkhd)
        493408 MiB available memory on the node where the printing process lives
     GPU memory used/free/total (MiB): 1778 / 63166 / 64944
------------------
     ethr =  1.92E-04,  avg # of iterations =  2.2

     =================== HUBBARD OCCUPATIONS ===================
     ------------------------ ATOM    1 ------------------------
     Tr[ns(  1)] (up, down, total) =   3.57659  0.34622  3.92281
     Atomic magnetic moment for atom   1 =   3.23037
     SPIN  1
     eigenvalues:
       0.641  0.641  0.705  0.705  0.885
     eigenvectors (columns):
       0.000 -0.000 -0.000 -0.000  1.000
      -0.000  0.000 -0.274 -0.962 -0.000
      -0.000  0.000 -0.962  0.274 -0.000
      -0.007 -1.000 -0.000 -0.000 -0.000
       1.000 -0.007 -0.000 -0.000 -0.000
     occupation matrix ns (before diag.):
       0.885 -0.000 -0.000 -0.000 -0.000
      -0.000  0.705 -0.000  0.000  0.000
      -0.000 -0.000  0.705  0.000  0.000
      -0.000  0.000  0.000  0.641  0.000
      -0.000  0.000  0.000  0.000  0.641
     SPIN  2
     eigenvalues:
       0.039  0.048  0.075  0.075  0.110
     eigenvectors (columns):
       1.000  0.000  0.000 -0.000  0.000
       0.000 -0.000 -0.227  0.974 -0.000
       0.000 -0.000 -0.974 -0.227  0.000
       0.000 -0.000  0.000 -0.000 -1.000
      -0.000  1.000 -0.000  0.000 -0.000
     occupation matrix ns (before diag.):
       0.039 -0.000 -0.000 -0.000  0.000
      -0.000  0.075 -0.000  0.000  0.000
      -0.000 -0.000  0.075 -0.000  0.000
      -0.000  0.000 -0.000  0.110  0.000
       0.000  0.000  0.000  0.000  0.048
     ------------------------ ATOM    2 ------------------------
     Tr[ns(  2)] (up, down, total) =   3.57659  0.34622  3.92281
     Atomic magnetic moment for atom   2 =   3.23037
     SPIN  1
     eigenvalues:
       0.641  0.641  0.705  0.705  0.885
     eigenvectors (columns):
       0.000 -0.000 -0.000 -0.000  1.000
      -0.000  0.000 -0.274 -0.962 -0.000
      -0.000  0.000 -0.962  0.274 -0.000
      -0.007 -1.000 -0.000 -0.000 -0.000
       1.000 -0.007 -0.000 -0.000 -0.000
     occupation matrix ns (before diag.):
       0.885 -0.000 -0.000 -0.000 -0.000
      -0.000  0.705 -0.000  0.000  0.000
      -0.000 -0.000  0.705  0.000  0.000
      -0.000  0.000  0.000  0.641  0.000
      -0.000  0.000  0.000  0.000  0.641
     SPIN  2
     eigenvalues:
       0.039  0.048  0.075  0.075  0.110
     eigenvectors (columns):
       1.000  0.000  0.000 -0.000  0.000
       0.000 -0.000 -0.227  0.974 -0.000
       0.000 -0.000 -0.974 -0.227  0.000
       0.000 -0.000  0.000 -0.000 -1.000
      -0.000  1.000 -0.000  0.000 -0.000
     occupation matrix ns (before diag.):
       0.039 -0.000 -0.000 -0.000  0.000
      -0.000  0.075 -0.000  0.000  0.000
      -0.000 -0.000  0.075 -0.000  0.000
      -0.000  0.000 -0.000  0.110  0.000
       0.000  0.000  0.000  0.000  0.048

     Number of occupied Hubbard levels =    7.8456

     negative rho (up, down):  0.000E+00 5.372E-03

     HUBBARD ENERGY =    0.3729  (Ry)

     total cpu time spent up to now is       21.7 secs

     total energy              =    -337.71058168 Ry
     estimated scf accuracy    <       0.00457680 Ry

     total magnetization       =     6.00 Bohr mag/cell
     absolute magnetization    =     6.91 Bohr mag/cell
[tb_dev] Currently allocated     0.00E+00 Mbytes, locked:    0 /   0
[tb_pin] Currently allocated     0.00E+00 Mbytes, locked:    0 /   0

     iteration #  5     ecut=    60.00 Ry     beta= 0.70
     Davidson diagonalization with overlap

---- Real-time Memory Report at c_bands before calling an iterative solver
          1384 MiB given to the printing process from OS
             0 MiB allocation reported by mallinfo(arena+hblkhd)
        493405 MiB available memory on the node where the printing process lives
     GPU memory used/free/total (MiB): 1778 / 63166 / 64944
------------------
     c_bands:  1 eigenvalues not converged
     c_bands:  1 eigenvalues not converged
     c_bands:  1 eigenvalues not converged
     c_bands:  1 eigenvalues not converged
     c_bands:  1 eigenvalues not converged
     c_bands:  1 eigenvalues not converged
     c_bands:  1 eigenvalues not converged
     c_bands:  1 eigenvalues not converged
     c_bands:  1 eigenvalues not converged
     c_bands:  1 eigenvalues not converged
     c_bands:  1 eigenvalues not converged
     c_bands:  1 eigenvalues not converged
     ethr =  1.20E-05,  avg # of iterations =  9.7

     =================== HUBBARD OCCUPATIONS ===================
     ------------------------ ATOM    1 ------------------------
     Tr[ns(  1)] (up, down, total) =   3.53953  0.31482  3.85435
     Atomic magnetic moment for atom   1 =   3.22471
     SPIN  1
     eigenvalues:
       0.622  0.624  0.703  0.703  0.887
     eigenvectors (columns):
       0.000 -0.000 -0.000 -0.000  1.000
      -0.000  0.000 -0.273 -0.962 -0.000
      -0.000  0.000 -0.962  0.273 -0.000
      -0.000 -1.000 -0.000 -0.000 -0.000
       1.000 -0.000 -0.000 -0.000 -0.000
     occupation matrix ns (before diag.):
       0.887 -0.000 -0.000 -0.000 -0.000
      -0.000  0.703 -0.000  0.000  0.000
      -0.000 -0.000  0.703  0.000  0.000
      -0.000  0.000  0.000  0.624  0.000
      -0.000  0.000  0.000  0.000  0.622
     SPIN  2
     eigenvalues:
       0.035  0.043  0.068  0.068  0.101
     eigenvectors (columns):
       1.000  0.000  0.000 -0.000  0.000
       0.000 -0.000 -0.230  0.973 -0.000
       0.000 -0.000 -0.973 -0.230  0.000
       0.000 -0.000  0.000 -0.000 -1.000
      -0.000  1.000 -0.000  0.000 -0.000
     occupation matrix ns (before diag.):
       0.035 -0.000 -0.000 -0.000  0.000
      -0.000  0.068 -0.000  0.000  0.000
      -0.000 -0.000  0.068 -0.000  0.000
      -0.000  0.000 -0.000  0.101  0.000
       0.000  0.000  0.000  0.000  0.043
     ------------------------ ATOM    2 ------------------------
     Tr[ns(  2)] (up, down, total) =   3.53953  0.31482  3.85435
     Atomic magnetic moment for atom   2 =   3.22471
     SPIN  1
     eigenvalues:
       0.622  0.624  0.703  0.703  0.887
     eigenvectors (columns):
       0.000 -0.000 -0.000 -0.000  1.000
      -0.000  0.000 -0.273 -0.962 -0.000
      -0.000  0.000 -0.962  0.273 -0.000
      -0.000 -1.000 -0.000 -0.000 -0.000
       1.000 -0.000 -0.000 -0.000 -0.000
     occupation matrix ns (before diag.):
       0.887 -0.000 -0.000 -0.000 -0.000
      -0.000  0.703 -0.000  0.000  0.000
      -0.000 -0.000  0.703  0.000  0.000
      -0.000  0.000  0.000  0.624  0.000
      -0.000  0.000  0.000  0.000  0.622
     SPIN  2
     eigenvalues:
       0.035  0.043  0.068  0.068  0.101
     eigenvectors (columns):
       1.000  0.000  0.000 -0.000  0.000
       0.000 -0.000 -0.230  0.973 -0.000
       0.000 -0.000 -0.973 -0.230  0.000
       0.000 -0.000  0.000 -0.000 -1.000
      -0.000  1.000 -0.000  0.000 -0.000
     occupation matrix ns (before diag.):
       0.035 -0.000 -0.000 -0.000  0.000
      -0.000  0.068 -0.000  0.000  0.000
      -0.000 -0.000  0.068 -0.000  0.000
      -0.000  0.000 -0.000  0.101  0.000
       0.000  0.000  0.000  0.000  0.043

     Number of occupied Hubbard levels =    7.7087

     negative rho (up, down):  0.000E+00 5.419E-03

     HUBBARD ENERGY =    0.3686  (Ry)

     total cpu time spent up to now is       29.6 secs

     total energy              =    -337.71300109 Ry
     estimated scf accuracy    <       0.00458577 Ry

     total magnetization       =     6.00 Bohr mag/cell
     absolute magnetization    =     6.98 Bohr mag/cell
[tb_dev] Currently allocated     0.00E+00 Mbytes, locked:    0 /   0
[tb_pin] Currently allocated     0.00E+00 Mbytes, locked:    0 /   0

     iteration #  6     ecut=    60.00 Ry     beta= 0.70
     Davidson diagonalization with overlap

---- Real-time Memory Report at c_bands before calling an iterative solver
          1389 MiB given to the printing process from OS
             0 MiB allocation reported by mallinfo(arena+hblkhd)
        493400 MiB available memory on the node where the printing process lives
     GPU memory used/free/total (MiB): 1778 / 63166 / 64944
------------------
     ethr =  1.20E-05,  avg # of iterations =  2.9

     =================== HUBBARD OCCUPATIONS ===================
     ------------------------ ATOM    1 ------------------------
     Tr[ns(  1)] (up, down, total) =   3.56300  0.32106  3.88406
     Atomic magnetic moment for atom   1 =   3.24194
     SPIN  1
     eigenvalues:
       0.622  0.625  0.713  0.713  0.890
     eigenvectors (columns):
       0.000 -0.000 -0.000 -0.000  1.000
      -0.000  0.000 -0.273 -0.962 -0.000
      -0.000  0.000 -0.962  0.273 -0.000
      -0.000 -1.000 -0.000 -0.000 -0.000
       1.000 -0.000 -0.000 -0.000 -0.000
     occupation matrix ns (before diag.):
       0.890 -0.000 -0.000 -0.000 -0.000
      -0.000  0.713 -0.000  0.000  0.000
      -0.000 -0.000  0.713  0.000  0.000
      -0.000  0.000  0.000  0.625  0.000
      -0.000  0.000  0.000  0.000  0.622
     SPIN  2
     eigenvalues:
       0.036  0.044  0.069  0.069  0.103
     eigenvectors (columns):
       1.000  0.000  0.000 -0.000  0.000
       0.000 -0.000 -0.230  0.973 -0.000
       0.000 -0.000 -0.973 -0.230  0.000
       0.000 -0.000 -0.000 -0.000 -1.000
      -0.000  1.000 -0.000  0.000 -0.000
     occupation matrix ns (before diag.):
       0.036 -0.000 -0.000 -0.000  0.000
      -0.000  0.069 -0.000  0.000  0.000
      -0.000 -0.000  0.069 -0.000  0.000
      -0.000  0.000 -0.000  0.103  0.000
       0.000  0.000  0.000  0.000  0.044
     ------------------------ ATOM    2 ------------------------
     Tr[ns(  2)] (up, down, total) =   3.56300  0.32106  3.88406
     Atomic magnetic moment for atom   2 =   3.24194
     SPIN  1
     eigenvalues:
       0.622  0.625  0.713  0.713  0.890
     eigenvectors (columns):
       0.000 -0.000 -0.000 -0.000  1.000
      -0.000  0.000 -0.273 -0.962 -0.000
      -0.000  0.000 -0.962  0.273 -0.000
      -0.000 -1.000 -0.000 -0.000 -0.000
       1.000 -0.000 -0.000 -0.000 -0.000
     occupation matrix ns (before diag.):
       0.890 -0.000 -0.000 -0.000 -0.000
      -0.000  0.713 -0.000  0.000  0.000
      -0.000 -0.000  0.713  0.000  0.000
      -0.000  0.000  0.000  0.625  0.000
      -0.000  0.000  0.000  0.000  0.622
     SPIN  2
     eigenvalues:
       0.036  0.044  0.069  0.069  0.103
     eigenvectors (columns):
       1.000  0.000  0.000 -0.000  0.000
       0.000 -0.000 -0.230  0.973 -0.000
       0.000 -0.000 -0.973 -0.230  0.000
       0.000 -0.000 -0.000 -0.000 -1.000
      -0.000  1.000 -0.000  0.000 -0.000
     occupation matrix ns (before diag.):
       0.036 -0.000 -0.000 -0.000  0.000
      -0.000  0.069 -0.000  0.000  0.000
      -0.000 -0.000  0.069 -0.000  0.000
      -0.000  0.000 -0.000  0.103  0.000
       0.000  0.000  0.000  0.000  0.044

     Number of occupied Hubbard levels =    7.7681

     negative rho (up, down):  0.000E+00 5.409E-03

     HUBBARD ENERGY =    0.3644  (Ry)

     total cpu time spent up to now is       33.2 secs

     total energy              =    -337.71387358 Ry
     estimated scf accuracy    <       0.00014082 Ry

     total magnetization       =     6.00 Bohr mag/cell
     absolute magnetization    =     7.04 Bohr mag/cell
[tb_dev] Currently allocated     0.00E+00 Mbytes, locked:    0 /   0
[tb_pin] Currently allocated     0.00E+00 Mbytes, locked:    0 /   0

     iteration #  7     ecut=    60.00 Ry     beta= 0.70
     Davidson diagonalization with overlap

---- Real-time Memory Report at c_bands before calling an iterative solver
          1394 MiB given to the printing process from OS
             0 MiB allocation reported by mallinfo(arena+hblkhd)
        493396 MiB available memory on the node where the printing process lives
     GPU memory used/free/total (MiB): 1778 / 63166 / 64944
------------------
     c_bands:  1 eigenvalues not converged
     c_bands:  1 eigenvalues not converged
     c_bands:  1 eigenvalues not converged
     c_bands:  1 eigenvalues not converged
     c_bands:  1 eigenvalues not converged
     c_bands:  1 eigenvalues not converged
     c_bands:  1 eigenvalues not converged
     c_bands:  1 eigenvalues not converged
     c_bands:  1 eigenvalues not converged
     ethr =  3.71E-07,  avg # of iterations =  8.9

     =================== HUBBARD OCCUPATIONS ===================
     ------------------------ ATOM    1 ------------------------
     Tr[ns(  1)] (up, down, total) =   3.58550  0.32472  3.91022
     Atomic magnetic moment for atom   1 =   3.26079
     SPIN  1
     eigenvalues:
       0.616  0.619  0.728  0.728  0.895
     eigenvectors (columns):
       0.000 -0.000 -0.000 -0.000  1.000
      -0.000  0.000 -0.272 -0.962 -0.000
      -0.000  0.000 -0.962  0.272 -0.000
      -0.000 -1.000 -0.000 -0.000 -0.000
       1.000 -0.000 -0.000 -0.000 -0.000
     occupation matrix ns (before diag.):
       0.895 -0.000 -0.000 -0.000 -0.000
      -0.000  0.728 -0.000  0.000  0.000
      -0.000 -0.000  0.728  0.000  0.000
      -0.000  0.000  0.000  0.619  0.000
      -0.000  0.000  0.000  0.000  0.616
     SPIN  2
     eigenvalues:
       0.036  0.045  0.070  0.070  0.105
     eigenvectors (columns):
       1.000  0.000  0.000 -0.000  0.000
       0.000 -0.000 -0.229  0.973 -0.000
       0.000 -0.000 -0.973 -0.229  0.000
       0.000 -0.000 -0.000 -0.000 -1.000
      -0.000  1.000 -0.000  0.000 -0.000
     occupation matrix ns (before diag.):
       0.036 -0.000 -0.000 -0.000  0.000
      -0.000  0.070 -0.000  0.000  0.000
      -0.000 -0.000  0.070 -0.000  0.000
      -0.000  0.000 -0.000  0.105  0.000
       0.000  0.000  0.000  0.000  0.045
     ------------------------ ATOM    2 ------------------------
     Tr[ns(  2)] (up, down, total) =   3.58550  0.32472  3.91022
     Atomic magnetic moment for atom   2 =   3.26079
     SPIN  1
     eigenvalues:
       0.616  0.619  0.728  0.728  0.895
     eigenvectors (columns):
       0.000 -0.000 -0.000 -0.000  1.000
      -0.000  0.000 -0.272 -0.962 -0.000
      -0.000  0.000 -0.962  0.272 -0.000
      -0.000 -1.000 -0.000 -0.000 -0.000
       1.000 -0.000 -0.000 -0.000 -0.000
     occupation matrix ns (before diag.):
       0.895 -0.000 -0.000 -0.000 -0.000
      -0.000  0.728 -0.000  0.000  0.000
      -0.000 -0.000  0.728  0.000  0.000
      -0.000  0.000  0.000  0.619  0.000
      -0.000  0.000  0.000  0.000  0.616
     SPIN  2
     eigenvalues:
       0.036  0.045  0.070  0.070  0.105
     eigenvectors (columns):
       1.000  0.000  0.000 -0.000  0.000
       0.000 -0.000 -0.229  0.973 -0.000
       0.000 -0.000 -0.973 -0.229  0.000
       0.000 -0.000 -0.000 -0.000 -1.000
      -0.000  1.000 -0.000  0.000 -0.000
     occupation matrix ns (before diag.):
       0.036 -0.000 -0.000 -0.000  0.000
      -0.000  0.070 -0.000  0.000  0.000
      -0.000 -0.000  0.070 -0.000  0.000
      -0.000  0.000 -0.000  0.105  0.000
       0.000  0.000  0.000  0.000  0.045

     Number of occupied Hubbard levels =    7.8204

     negative rho (up, down):  0.000E+00 5.408E-03

     HUBBARD ENERGY =    0.3646  (Ry)

     total cpu time spent up to now is       40.9 secs

     total energy              =    -337.71439826 Ry
     estimated scf accuracy    <       0.00158476 Ry

     total magnetization       =     6.00 Bohr mag/cell
     absolute magnetization    =     7.11 Bohr mag/cell
[tb_dev] Currently allocated     0.00E+00 Mbytes, locked:    0 /   0
[tb_pin] Currently allocated     0.00E+00 Mbytes, locked:    0 /   0

     iteration #  8     ecut=    60.00 Ry     beta= 0.70
     Davidson diagonalization with overlap

---- Real-time Memory Report at c_bands before calling an iterative solver
          1398 MiB given to the printing process from OS
             0 MiB allocation reported by mallinfo(arena+hblkhd)
        493392 MiB available memory on the node where the printing process lives
     GPU memory used/free/total (MiB): 1778 / 63166 / 64944
------------------
     ethr =  3.71E-07,  avg # of iterations =  1.2

     =================== HUBBARD OCCUPATIONS ===================
     ------------------------ ATOM    1 ------------------------
     Tr[ns(  1)] (up, down, total) =   3.58605  0.32497  3.91103
     Atomic magnetic moment for atom   1 =   3.26108
     SPIN  1
     eigenvalues:
       0.616  0.619  0.728  0.728  0.895
     eigenvectors (columns):
       0.000 -0.000 -0.000 -0.000  1.000
      -0.000  0.000 -0.272 -0.962 -0.000
      -0.000  0.000 -0.962  0.272 -0.000
      -0.000 -1.000 -0.000 -0.000 -0.000
       1.000 -0.000 -0.000 -0.000 -0.000
     occupation matrix ns (before diag.):
       0.895 -0.000 -0.000 -0.000 -0.000
      -0.000  0.728 -0.000  0.000  0.000
      -0.000 -0.000  0.728  0.000  0.000
      -0.000  0.000  0.000  0.619  0.000
      -0.000  0.000  0.000  0.000  0.616
     SPIN  2
     eigenvalues:
       0.036  0.045  0.070  0.070  0.105
     eigenvectors (columns):
       1.000  0.000  0.000 -0.000  0.000
       0.000 -0.000 -0.229  0.973 -0.000
       0.000 -0.000 -0.973 -0.229  0.000
       0.000 -0.000 -0.000 -0.000 -1.000
      -0.000  1.000 -0.000  0.000 -0.000
     occupation matrix ns (before diag.):
       0.036 -0.000 -0.000 -0.000  0.000
      -0.000  0.070 -0.000  0.000  0.000
      -0.000 -0.000  0.070 -0.000  0.000
      -0.000  0.000 -0.000  0.105  0.000
       0.000  0.000  0.000  0.000  0.045
     ------------------------ ATOM    2 ------------------------
     Tr[ns(  2)] (up, down, total) =   3.58605  0.32497  3.91103
     Atomic magnetic moment for atom   2 =   3.26108
     SPIN  1
     eigenvalues:
       0.616  0.619  0.728  0.728  0.895
     eigenvectors (columns):
       0.000 -0.000 -0.000 -0.000  1.000
      -0.000  0.000 -0.272 -0.962 -0.000
      -0.000  0.000 -0.962  0.272 -0.000
      -0.000 -1.000 -0.000 -0.000 -0.000
       1.000 -0.000 -0.000 -0.000 -0.000
     occupation matrix ns (before diag.):
       0.895 -0.000 -0.000 -0.000 -0.000
      -0.000  0.728 -0.000  0.000  0.000
      -0.000 -0.000  0.728  0.000  0.000
      -0.000  0.000  0.000  0.619  0.000
      -0.000  0.000  0.000  0.000  0.616
     SPIN  2
     eigenvalues:
       0.036  0.045  0.070  0.070  0.105
     eigenvectors (columns):
       1.000  0.000  0.000 -0.000  0.000
       0.000 -0.000 -0.229  0.973 -0.000
       0.000 -0.000 -0.973 -0.229  0.000
       0.000 -0.000 -0.000 -0.000 -1.000
      -0.000  1.000 -0.000  0.000 -0.000
     occupation matrix ns (before diag.):
       0.036 -0.000 -0.000 -0.000  0.000
      -0.000  0.070 -0.000  0.000  0.000
      -0.000 -0.000  0.070 -0.000  0.000
      -0.000  0.000 -0.000  0.105  0.000
       0.000  0.000  0.000  0.000  0.045

     Number of occupied Hubbard levels =    7.8221

     negative rho (up, down):  0.000E+00 5.407E-03

     HUBBARD ENERGY =    0.3632  (Ry)

     total cpu time spent up to now is       43.4 secs

     total energy              =    -337.71406451 Ry
     estimated scf accuracy    <       0.00173266 Ry

     total magnetization       =     6.00 Bohr mag/cell
     absolute magnetization    =     7.11 Bohr mag/cell
[tb_dev] Currently allocated     0.00E+00 Mbytes, locked:    0 /   0
[tb_pin] Currently allocated     0.00E+00 Mbytes, locked:    0 /   0

     iteration #  9     ecut=    60.00 Ry     beta= 0.70
     Davidson diagonalization with overlap

---- Real-time Memory Report at c_bands before calling an iterative solver
          1402 MiB given to the printing process from OS
             0 MiB allocation reported by mallinfo(arena+hblkhd)
        493387 MiB available memory on the node where the printing process lives
     GPU memory used/free/total (MiB): 1778 / 63166 / 64944
------------------
     ethr =  3.71E-07,  avg # of iterations =  6.4

     =================== HUBBARD OCCUPATIONS ===================
     ------------------------ ATOM    1 ------------------------
     Tr[ns(  1)] (up, down, total) =   3.57233  0.32092  3.89326
     Atomic magnetic moment for atom   1 =   3.25141
     SPIN  1
     eigenvalues:
       0.603  0.611  0.733  0.733  0.893
     eigenvectors (columns):
      -0.000  0.000 -0.000 -0.000  1.000
       0.000 -0.000 -0.272 -0.962 -0.000
       0.000 -0.000 -0.962  0.272 -0.000
      -1.000  0.000 -0.000 -0.000 -0.000
       0.000  1.000 -0.000 -0.000 -0.000
     occupation matrix ns (before diag.):
       0.893 -0.000 -0.000 -0.000 -0.000
      -0.000  0.733 -0.000  0.000  0.000
      -0.000 -0.000  0.733  0.000  0.000
      -0.000  0.000  0.000  0.603  0.000
      -0.000  0.000  0.000  0.000  0.611
     SPIN  2
     eigenvalues:
       0.036  0.044  0.069  0.069  0.103
     eigenvectors (columns):
      -1.000  0.000  0.000 -0.000 -0.000
      -0.000 -0.000 -0.229  0.973  0.000
      -0.000 -0.000 -0.973 -0.229 -0.000
      -0.000 -0.000 -0.000 -0.000  1.000
       0.000  1.000 -0.000  0.000  0.000
     occupation matrix ns (before diag.):
       0.036 -0.000 -0.000 -0.000  0.000
      -0.000  0.069 -0.000  0.000  0.000
      -0.000 -0.000  0.069 -0.000  0.000
      -0.000  0.000 -0.000  0.103  0.000
       0.000  0.000  0.000  0.000  0.044
     ------------------------ ATOM    2 ------------------------
     Tr[ns(  2)] (up, down, total) =   3.57233  0.32092  3.89326
     Atomic magnetic moment for atom   2 =   3.25141
     SPIN  1
     eigenvalues:
       0.603  0.611  0.733  0.733  0.893
     eigenvectors (columns):
      -0.000  0.000 -0.000 -0.000  1.000
       0.000 -0.000 -0.272 -0.962 -0.000
       0.000 -0.000 -0.962  0.272 -0.000
      -1.000  0.000 -0.000 -0.000 -0.000
       0.000  1.000 -0.000 -0.000 -0.000
     occupation matrix ns (before diag.):
       0.893 -0.000 -0.000 -0.000 -0.000
      -0.000  0.733 -0.000  0.000  0.000
      -0.000 -0.000  0.733  0.000  0.000
      -0.000  0.000  0.000  0.603  0.000
      -0.000  0.000  0.000  0.000  0.611
     SPIN  2
     eigenvalues:
       0.036  0.044  0.069  0.069  0.103
     eigenvectors (columns):
      -1.000  0.000  0.000 -0.000 -0.000
      -0.000 -0.000 -0.229  0.973  0.000
      -0.000 -0.000 -0.973 -0.229 -0.000
      -0.000 -0.000 -0.000 -0.000  1.000
       0.000  1.000 -0.000  0.000  0.000
     occupation matrix ns (before diag.):
       0.036 -0.000 -0.000 -0.000  0.000
      -0.000  0.069 -0.000  0.000  0.000
      -0.000 -0.000  0.069 -0.000  0.000
      -0.000  0.000 -0.000  0.103  0.000
       0.000  0.000  0.000  0.000  0.044

     Number of occupied Hubbard levels =    7.7865

     negative rho (up, down):  0.000E+00 5.408E-03

     HUBBARD ENERGY =    0.3635  (Ry)

     total cpu time spent up to now is       49.5 secs

     total energy              =    -337.71427179 Ry
     estimated scf accuracy    <       0.00018601 Ry

     total magnetization       =     6.00 Bohr mag/cell
     absolute magnetization    =     7.09 Bohr mag/cell
[tb_dev] Currently allocated     0.00E+00 Mbytes, locked:    0 /   0
[tb_pin] Currently allocated     0.00E+00 Mbytes, locked:    0 /   0

     iteration # 10     ecut=    60.00 Ry     beta= 0.70
     Davidson diagonalization with overlap

---- Real-time Memory Report at c_bands before calling an iterative solver
          1408 MiB given to the printing process from OS
             0 MiB allocation reported by mallinfo(arena+hblkhd)
        493381 MiB available memory on the node where the printing process lives
     GPU memory used/free/total (MiB): 1778 / 63166 / 64944
------------------
     ethr =  3.71E-07,  avg # of iterations =  1.4

     =================== HUBBARD OCCUPATIONS ===================
     ------------------------ ATOM    1 ------------------------
     Tr[ns(  1)] (up, down, total) =   3.57297  0.32100  3.89397
     Atomic magnetic moment for atom   1 =   3.25197
     SPIN  1
     eigenvalues:
       0.605  0.611  0.732  0.732  0.893
     eigenvectors (columns):
      -0.000  0.000 -0.000 -0.000  1.000
       0.000 -0.000 -0.272 -0.962 -0.000
       0.000 -0.000 -0.962  0.272 -0.000
      -1.000  0.000 -0.000 -0.000 -0.000
       0.000  1.000 -0.000 -0.000 -0.000
     occupation matrix ns (before diag.):
       0.893 -0.000 -0.000 -0.000 -0.000
      -0.000  0.732 -0.000  0.000  0.000
      -0.000 -0.000  0.732  0.000  0.000
      -0.000  0.000  0.000  0.605  0.000
      -0.000  0.000  0.000  0.000  0.611
     SPIN  2
     eigenvalues:
       0.036  0.044  0.069  0.069  0.103
     eigenvectors (columns):
       1.000  0.000  0.000 -0.000  0.000
       0.000 -0.000 -0.229  0.973 -0.000
       0.000 -0.000 -0.973 -0.229  0.000
       0.000 -0.000 -0.000 -0.000 -1.000
      -0.000  1.000 -0.000  0.000 -0.000
     occupation matrix ns (before diag.):
       0.036 -0.000 -0.000 -0.000  0.000
      -0.000  0.069 -0.000  0.000  0.000
      -0.000 -0.000  0.069 -0.000  0.000
      -0.000  0.000 -0.000  0.103  0.000
       0.000  0.000  0.000  0.000  0.044
     ------------------------ ATOM    2 ------------------------
     Tr[ns(  2)] (up, down, total) =   3.57297  0.32100  3.89397
     Atomic magnetic moment for atom   2 =   3.25197
     SPIN  1
     eigenvalues:
       0.605  0.611  0.732  0.732  0.893
     eigenvectors (columns):
      -0.000  0.000 -0.000 -0.000  1.000
       0.000 -0.000 -0.272 -0.962 -0.000
       0.000 -0.000 -0.962  0.272 -0.000
      -1.000  0.000 -0.000 -0.000 -0.000
       0.000  1.000 -0.000 -0.000 -0.000
     occupation matrix ns (before diag.):
       0.893 -0.000 -0.000 -0.000 -0.000
      -0.000  0.732 -0.000  0.000  0.000
      -0.000 -0.000  0.732  0.000  0.000
      -0.000  0.000  0.000  0.605  0.000
      -0.000  0.000  0.000  0.000  0.611
     SPIN  2
     eigenvalues:
       0.036  0.044  0.069  0.069  0.103
     eigenvectors (columns):
       1.000  0.000  0.000 -0.000  0.000
       0.000 -0.000 -0.229  0.973 -0.000
       0.000 -0.000 -0.973 -0.229  0.000
       0.000 -0.000 -0.000 -0.000 -1.000
      -0.000  1.000 -0.000  0.000 -0.000
     occupation matrix ns (before diag.):
       0.036 -0.000 -0.000 -0.000  0.000
      -0.000  0.069 -0.000  0.000  0.000
      -0.000 -0.000  0.069 -0.000  0.000
      -0.000  0.000 -0.000  0.103  0.000
       0.000  0.000  0.000  0.000  0.044

     Number of occupied Hubbard levels =    7.7879

     negative rho (up, down):  0.000E+00 5.408E-03

     HUBBARD ENERGY =    0.3621  (Ry)

     total cpu time spent up to now is       52.1 secs

     total energy              =    -337.71433305 Ry
     estimated scf accuracy    <       0.00024526 Ry

     total magnetization       =     6.00 Bohr mag/cell
     absolute magnetization    =     7.09 Bohr mag/cell
[tb_dev] Currently allocated     0.00E+00 Mbytes, locked:    0 /   0
[tb_pin] Currently allocated     0.00E+00 Mbytes, locked:    0 /   0

     iteration # 11     ecut=    60.00 Ry     beta= 0.70
     Davidson diagonalization with overlap

[...]

   -57.5417 -57.5384 -32.1194 -32.1024 -31.9759 -31.9595 -30.6569 -30.6522
    -8.7930  -8.6537  -0.6348  -0.6094   0.7578   0.8798   1.2491   1.5333
     6.3070   6.9511   7.3253   7.6308   7.6759   7.8133   8.6515

     occupation numbers 
     1.0000   1.0000   1.0000   1.0000   1.0000   1.0000   1.0000   1.0000
     1.0000   1.0000   1.0000   1.0000   1.0000   1.0000   1.0000   1.0000
     0.0000   0.0000   0.0000   0.0000   0.0000   0.0000   0.0000

          k = 0.3105 0.3881 0.0271 (  6282 PWs)   bands (ev):

   -57.5417 -57.5384 -32.1194 -32.1024 -31.9759 -31.9595 -30.6569 -30.6522
    -8.7960  -8.6506  -0.6401  -0.6045   0.7726   0.8710   1.2458   1.5298
     6.2791   6.9900   7.3115   7.6735   7.6967   7.7713   8.6667

     occupation numbers 
     1.0000   1.0000   1.0000   1.0000   1.0000   1.0000   1.0000   1.0000
     1.0000   1.0000   1.0000   1.0000   1.0000   1.0000   1.0000   1.0000
     0.0000   0.0000   0.0000   0.0000   0.0000   0.0000   0.0000

          k = 0.3105 0.3881 0.1354 (  6288 PWs)   bands (ev):

   -57.5417 -57.5384 -32.1194 -32.1024 -31.9759 -31.9595 -30.6569 -30.6522
    -8.7874  -8.6595  -0.6258  -0.6174   0.7338   0.8945   1.2521   1.5407
     6.3562   6.8871   7.3495   7.5765   7.6438   7.8601   8.6338

     occupation numbers 
     1.0000   1.0000   1.0000   1.0000   1.0000   1.0000   1.0000   1.0000
     1.0000   1.0000   1.0000   1.0000   1.0000   1.0000   1.0000   1.0000
     0.0000   0.0000   0.0000   0.0000   0.0000   0.0000   0.0000

          k = 0.3105-0.4657-0.0541 (  6290 PWs)   bands (ev):

   -57.5399 -57.5399 -32.1136 -32.1136 -31.9654 -31.9654 -30.6545 -30.6545
    -8.7258  -8.6968  -0.6793  -0.6444   0.7849   0.8571   1.2570   1.5568
     6.4967   6.7164   7.3483   7.5124   7.6176   7.7741   8.7018

     occupation numbers 
     1.0000   1.0000   1.0000   1.0000   1.0000   1.0000   1.0000   1.0000
     1.0000   1.0000   1.0000   1.0000   1.0000   1.0000   1.0000   1.0000
     0.0000   0.0000   0.0000   0.0000   0.0000   0.0000   0.0000

          k = 0.3105-0.4657 0.1624 (  6284 PWs)   bands (ev):

   -57.5399 -57.5399 -32.1136 -32.1136 -31.9654 -31.9654 -30.6545 -30.6545
    -8.7258  -8.6968  -0.6652  -0.6589   0.8050   0.8350   1.2620   1.5538
     6.6018   6.6024   7.4045   7.4332   7.6992   7.7206   8.7133

     occupation numbers 
     1.0000   1.0000   1.0000   1.0000   1.0000   1.0000   1.0000   1.0000
     1.0000   1.0000   1.0000   1.0000   1.0000   1.0000   1.0000   1.0000
     0.0000   0.0000   0.0000   0.0000   0.0000   0.0000   0.0000

          k = 0.3881 0.3881 0.2707 (  6292 PWs)   bands (ev):

   -57.5404 -57.5386 -32.1242 -32.1154 -31.9643 -31.9558 -30.6557 -30.6533
    -8.7096  -8.6706  -0.7432  -0.7097   0.7577   0.9264   1.2496   1.5587
     6.6124   6.6847   7.3096   7.3566   7.4912   7.7059   8.6672

     occupation numbers 
     1.0000   1.0000   1.0000   1.0000   1.0000   1.0000   1.0000   1.0000
     1.0000   1.0000   1.0000   1.0000   1.0000   1.0000   1.0000   1.0000
     0.0000   0.0000   0.0000   0.0000   0.0000   0.0000   0.0000

          k = 0.3881 0.3881 0.4873 (  6283 PWs)   bands (ev):

   -57.5404 -57.5386 -32.1242 -32.1154 -31.9643 -31.9558 -30.6557 -30.6533
    -8.7239  -8.6561  -0.7280  -0.7267   0.7942   0.9000   1.2479   1.5491
     6.4988   6.8028   7.2968   7.4312   7.4982   7.6578   8.6746

     occupation numbers 
     1.0000   1.0000   1.0000   1.0000   1.0000   1.0000   1.0000   1.0000
     1.0000   1.0000   1.0000   1.0000   1.0000   1.0000   1.0000   1.0000
     0.0000   0.0000   0.0000   0.0000   0.0000   0.0000   0.0000

          k = 0.3881 0.3881-0.0541 (  6298 PWs)   bands (ev):

   -57.5404 -57.5386 -32.1242 -32.1154 -31.9643 -31.9558 -30.6557 -30.6533
    -8.7338  -8.6461  -0.7432  -0.7122   0.8334   0.8733   1.2391   1.5444
     6.3934   6.9280   7.2833   7.4985   7.5057   7.6125   8.6850

     occupation numbers 
     1.0000   1.0000   1.0000   1.0000   1.0000   1.0000   1.0000   1.0000
     1.0000   1.0000   1.0000   1.0000   1.0000   1.0000   1.0000   1.0000
     0.0000   0.0000   0.0000   0.0000   0.0000   0.0000   0.0000

          k = 0.3881-0.4657-0.0271 (  6300 PWs)   bands (ev):

   -57.5393 -57.5393 -32.1229 -32.1229 -31.9575 -31.9575 -30.6545 -30.6545
    -8.6922  -8.6632  -0.7838  -0.7484   0.8281   0.8959   1.2415   1.5528
     6.5347   6.7989   7.2845   7.3305   7.5284   7.5345   8.7277

     occupation numbers 
     1.0000   1.0000   1.0000   1.0000   1.0000   1.0000   1.0000   1.0000
     1.0000   1.0000   1.0000   1.0000   1.0000   1.0000   1.0000   1.0000
     0.0000   0.0000   0.0000   0.0000   0.0000   0.0000   0.0000

          k = 0.3881-0.4657 0.0812 (  6288 PWs)   bands (ev):

   -57.5393 -57.5393 -32.1229 -32.1229 -31.9575 -31.9575 -30.6545 -30.6545
    -8.6921  -8.6633  -0.7792  -0.7533   0.8368   0.8869   1.2431   1.5515
     6.5670   6.7619   7.2961   7.3289   7.5252   7.5295   8.7293

     occupation numbers 
     1.0000   1.0000   1.0000   1.0000   1.0000   1.0000   1.0000   1.0000
     1.0000   1.0000   1.0000   1.0000   1.0000   1.0000   1.0000   1.0000
     0.0000   0.0000   0.0000   0.0000   0.0000   0.0000   0.0000

          k = 0.3881-0.4657 0.1895 (  6276 PWs)   bands (ev):

   -57.5393 -57.5393 -32.1229 -32.1229 -31.9575 -31.9575 -30.6545 -30.6545
    -8.6921  -8.6633  -0.7712  -0.7615   0.8514   0.8721   1.2447   1.5501
     6.6212   6.7032   7.3113   7.3235   7.5214   7.5249   8.7522

     occupation numbers 
     1.0000   1.0000   1.0000   1.0000   1.0000   1.0000   1.0000   1.0000
     1.0000   1.0000   1.0000   1.0000   1.0000   1.0000   1.0000   1.0000
     0.0000   0.0000   0.0000   0.0000   0.0000   0.0000   0.0000

          k = 0.3881-0.3881 0.0000 (  6304 PWs)   bands (ev):

   -57.5404 -57.5386 -32.1242 -32.1154 -31.9643 -31.9558 -30.6557 -30.6533
    -8.7351  -8.6447  -0.7457  -0.7098   0.8397   0.8691   1.2370   1.5441
     6.3776   6.9482   7.2812   7.5069   7.5083   7.6057   8.6871

     occupation numbers 
     1.0000   1.0000   1.0000   1.0000   1.0000   1.0000   1.0000   1.0000
     1.0000   1.0000   1.0000   1.0000   1.0000   1.0000   1.0000   1.0000
     0.0000   0.0000   0.0000   0.0000   0.0000   0.0000   0.0000

          k = 0.3881-0.3881 0.1083 (  6291 PWs)   bands (ev):

   -57.5404 -57.5386 -32.1242 -32.1154 -31.9643 -31.9558 -30.6557 -30.6533
    -8.7299  -8.6500  -0.7363  -0.7189   0.8164   0.8846   1.2438   1.5457
     6.4372   6.8739   7.2891   7.4708   7.5024   7.6314   8.6802

     occupation numbers 
     1.0000   1.0000   1.0000   1.0000   1.0000   1.0000   1.0000   1.0000
     1.0000   1.0000   1.0000   1.0000   1.0000   1.0000   1.0000   1.0000
     0.0000   0.0000   0.0000   0.0000   0.0000   0.0000   0.0000

          k = 0.3881-0.3881 0.2166 (  6279 PWs)   bands (ev):

   -57.5404 -57.5386 -32.1242 -32.1154 -31.9643 -31.9558 -30.6557 -30.6533
    -8.7166  -8.6635  -0.7368  -0.7169   0.7729   0.9153   1.2497   1.5541
     6.5629   6.7341   7.3043   7.3893   7.4941   7.6851   8.6700

     occupation numbers 
     1.0000   1.0000   1.0000   1.0000   1.0000   1.0000   1.0000   1.0000
     1.0000   1.0000   1.0000   1.0000   1.0000   1.0000   1.0000   1.0000
     0.0000   0.0000   0.0000   0.0000   0.0000   0.0000   0.0000

          k = 0.3881-0.3881-0.3249 (  6276 PWs)   bands (ev):

   -57.5404 -57.5386 -32.1242 -32.1154 -31.9643 -31.9558 -30.6557 -30.6533
    -8.7063  -8.6739  -0.7456  -0.7070   0.7522   0.9304   1.2493   1.5606
     6.6318   6.6662   7.3115   7.3440   7.4902   7.7136   8.6663

     occupation numbers 
     1.0000   1.0000   1.0000   1.0000   1.0000   1.0000   1.0000   1.0000
     1.0000   1.0000   1.0000   1.0000   1.0000   1.0000   1.0000   1.0000
     0.0000   0.0000   0.0000   0.0000   0.0000   0.0000   0.0000

          k =-0.4657-0.4657-0.3249 (  6322 PWs)   bands (ev):

   -57.5390 -57.5390 -32.1261 -32.1261 -31.9548 -31.9548 -30.6544 -30.6544
    -8.6798  -8.6509  -0.8225  -0.7866   0.8484   0.9114   1.2327   1.5501
     6.5679   6.8524   7.2205   7.2568   7.4232   7.5161   8.7421

     occupation numbers 
     1.0000   1.0000   1.0000   1.0000   1.0000   1.0000   1.0000   1.0000
     1.0000   1.0000   1.0000   1.0000   1.0000   1.0000   1.0000   1.0000
     0.0000   0.0000   0.0000   0.0000   0.0000   0.0000   0.0000

          k =-0.4657-0.4657-0.2166 (  6274 PWs)   bands (ev):

   -57.5390 -57.5390 -32.1261 -32.1261 -31.9548 -31.9548 -30.6544 -30.6544
    -8.6797  -8.6510  -0.8137  -0.7958   0.8644   0.8959   1.2343   1.5480
     6.6301   6.7853   7.2283   7.2461   7.4476   7.4937   8.7424

     occupation numbers 
     1.0000   1.0000   1.0000   1.0000   1.0000   1.0000   1.0000   1.0000
     1.0000   1.0000   1.0000   1.0000   1.0000   1.0000   1.0000   1.0000
     0.0000   0.0000   0.0000   0.0000   0.0000   0.0000   0.0000

     the Fermi energy is     4.5528 ev

!    total energy              =    -337.73489638 Ry
     estimated scf accuracy    <          5.8E-14 Ry
     smearing contrib. (-TS)   =       0.00016062 Ry
     internal energy E=F+TS    =    -337.73505700 Ry

     The total energy is F=E-TS. E is the sum of the following terms:
     one-electron contribution =    -319.08439718 Ry
     hartree contribution      =     165.19139363 Ry
     xc contribution           =     -55.91688437 Ry
     ewald contribution        =    -128.24022864 Ry
     Hubbard energy            =       0.31505957 Ry

     total magnetization       =     6.00 Bohr mag/cell
     absolute magnetization    =     6.89 Bohr mag/cell

     convergence has been achieved in  17 iterations

     negative rho (up, down):  0.000E+00 5.444E-03
     force_hub    :     92.09s CPU     92.75s WALL (      12 calls)
     dndtau       :     84.02s CPU     84.63s WALL (   38880 calls)
     dprojdtau    :     28.54s CPU     28.77s WALL (   77760 calls)
     calc_doverla :     24.35s CPU     24.52s WALL (   38880 calls)
     matel_dSdtau :     38.07s CPU     38.32s WALL (   77760 calls)

     Forces acting on atoms (cartesian axes, Ry/au):

     atom    1 type  2   force =     0.00000000    0.00000000    0.00000000
     atom    2 type  2   force =     0.00000000    0.00000000    0.00000000
     atom    3 type  1   force =     0.00000000   -0.00000000   -0.00008817
     atom    4 type  1   force =    -0.00000000    0.00000000    0.00008817
     The non-local contrib.  to forces
     atom    1 type  2   force =     0.00000000    0.00000000    0.00000000
     atom    2 type  2   force =     0.00000000    0.00000000    0.00000000
     atom    3 type  1   force =    -0.00000000    0.00000000    0.19070790
     atom    4 type  1   force =     0.00000000   -0.00000000   -0.19070790
     The ionic contribution  to forces
     atom    1 type  2   force =    -0.00001407   -0.00001473   -0.00000185
     atom    2 type  2   force =    -0.00001370   -0.00001304    0.00000185
     atom    3 type  1   force =     0.00001381    0.00001425  -12.30648700
     atom    4 type  1   force =     0.00001396    0.00001352   12.30648700
     The local contribution  to forces
     atom    1 type  2   force =     0.00000009    0.00000041    0.00000127
     atom    2 type  2   force =    -0.00000009   -0.00000041   -0.00000127
     atom    3 type  1   force =     0.00001131    0.00001124   12.11369247
     atom    4 type  1   force =     0.00001129    0.00001136  -12.11369247
     The core correction contribution to forces
     atom    1 type  2   force =    -0.00000069    0.00000069   -0.00000000
     atom    2 type  2   force =     0.00000069   -0.00000069    0.00000000
     atom    3 type  1   force =    -0.00000125   -0.00000126   -0.00765937
     atom    4 type  1   force =    -0.00000165   -0.00000164    0.00765937
     The Hubbard contrib.    to forces
     atom    1 type  2   force =     0.00000000    0.00000000    0.00000000
     atom    2 type  2   force =     0.00000000    0.00000000    0.00000000
     atom    3 type  1   force =    -0.00000000    0.00000000    0.00965789
     atom    4 type  1   force =     0.00000000   -0.00000000   -0.00965789
     The SCF correction term to forces
     atom    1 type  2   force =    -0.00000000    0.00000000   -0.00000000
     atom    2 type  2   force =     0.00000000   -0.00000000    0.00000000
     atom    3 type  1   force =     0.00000000    0.00000000   -0.00000005
     atom    4 type  1   force =     0.00000000    0.00000000    0.00000005

     Total force =     0.000125     Total SCF correction =     0.000000


     Computing stress (Cartesian axis) and pressure


     negative rho (up, down):  0.000E+00 5.444E-03
     stres_hub    :    182.38s CPU    183.81s WALL (      12 calls)
     dprojdepsilo :    154.12s CPU    155.38s WALL (   29160 calls)
     dprojdeps1   :     22.35s CPU     22.55s WALL (   29160 calls)
     dprojdeps2   :     34.90s CPU     35.34s WALL (   29160 calls)
     dprojdeps3   :     96.70s CPU     97.38s WALL (   29160 calls)
          total   stress  (Ry/bohr**3)                   (kbar)     P=       -0.05
   0.00000023  -0.00000000   0.00000000            0.03       -0.00        0.00
  -0.00000000   0.00000023  -0.00000000           -0.00        0.03       -0.00
   0.00000000  -0.00000000  -0.00000139            0.00       -0.00       -0.20

     kinetic stress (kbar)  10606.50     -0.00      0.00
                               -0.00  10606.50     -0.00
                                0.00     -0.00  11424.39

     local   stress (kbar) -35075.90     -0.00     -0.00
                               -0.00 -35075.90      0.00
                               -0.00      0.00  35325.38

     nonloc. stress (kbar)   1385.40     -0.00      0.00
                               -0.00   1385.40     -0.00
                                0.00     -0.00   1434.55

     hartree stress (kbar)  20498.66      0.00      0.00
                                0.00  20498.66     -0.00
                                0.00     -0.00 -10610.81

     exc-cor stress (kbar)   -492.51     -0.00      0.00
                               -0.00   -492.51      0.00
                                0.00      0.00   -497.74

     corecor stress (kbar)  -2386.99     -0.00     -0.00
                               -0.00  -2386.99     -0.00
                               -0.00     -0.00  -2394.57

     ewald   stress (kbar)   5502.21     -0.00      0.00
                               -0.00   5502.21     -0.00
                                0.00     -0.00 -34593.86

     hubbard stress (kbar)    -37.33      0.00     -0.00
                                0.00    -37.33      0.00
                               -0.00      0.00    -87.55

     DFT-D   stress (kbar)      0.00      0.00      0.00
                                0.00      0.00      0.00
                                0.00      0.00      0.00

     XDM     stress (kbar)      0.00      0.00      0.00
                                0.00      0.00      0.00
                                0.00      0.00      0.00

     dft-nl  stress (kbar)      0.00      0.00      0.00
                                0.00      0.00      0.00
                                0.00      0.00      0.00

     TS-vdW  stress (kbar)      0.00      0.00      0.00
                                0.00      0.00      0.00
                                0.00      0.00      0.00

     MDB     stress (kbar)      0.00      0.00      0.00
                                0.00      0.00      0.00
                                0.00      0.00      0.00

     3D-RISM stress (kbar)      0.00      0.00      0.00
                                0.00      0.00      0.00
                                0.00      0.00      0.00


     Writing all to output data dir ./out/aiida.save/ :
     XML data file, charge density, pseudopotentials, collected wavefunctions
 
     init_run     :      4.00s CPU      4.76s WALL (       2 calls)
     electrons    :    742.56s CPU    757.19s WALL (      12 calls)
     update_pot   :      0.25s CPU      0.25s WALL (      10 calls)
     forces       :     96.21s CPU     96.90s WALL (      12 calls)
     stress       :    196.63s CPU    198.15s WALL (      12 calls)

     Called by init_run:
     wfcinit      :      2.97s CPU      3.33s WALL (       2 calls)
     wfcinit:atom :      0.25s CPU      0.25s WALL (     540 calls)
     wfcinit:wfcr :      1.27s CPU      1.30s WALL (     540 calls)
     potinit      :      0.11s CPU      0.14s WALL (       2 calls)
     hinit0       :      0.57s CPU      0.85s WALL (       2 calls)

     Called by electrons:
     c_bands      :    648.49s CPU    661.93s WALL (     146 calls)
     sum_band     :     86.08s CPU     86.73s WALL (     146 calls)
     v_of_rho     :      1.11s CPU      1.18s WALL (     152 calls)
     v_h          :      0.32s CPU      0.35s WALL (     152 calls)
     v_xc         :      0.91s CPU      0.95s WALL (     176 calls)
     newd         :      2.44s CPU      2.51s WALL (     152 calls)
     mix_rho      :      2.13s CPU      2.24s WALL (     146 calls)

     Called by c_bands:
     init_us_2    :     20.37s CPU     20.88s WALL (   95580 calls)
     cegterg      :    594.89s CPU    599.96s WALL (   39426 calls)

     Called by sum_band:
     sum_band:wei :      0.64s CPU      0.64s WALL (     146 calls)
     sum_band:loo :     53.77s CPU     54.22s WALL (     146 calls)
     sum_band:buf :     11.94s CPU     12.06s WALL (   39420 calls)
     sum_band:ini :      8.52s CPU      8.60s WALL (   39420 calls)
     sum_band:cal :      1.19s CPU      1.19s WALL (   39420 calls)
     sum_band:bec :      6.93s CPU      7.00s WALL (   39420 calls)
     addusdens    :      5.21s CPU      5.23s WALL (     146 calls)
                                        5.23s GPU  (     146 calls)
     addusd:skk   :      0.02s CPU      0.02s WALL (     292 calls)
                                        0.02s GPU  (     292 calls)

     Called by *egterg:
     cdiaghg      :    192.12s CPU    195.53s WALL (  247406 calls)
                                      193.93s GPU  (  247406 calls)
     cegterg:over :     76.84s CPU     77.67s WALL (  202586 calls)
     cegterg:upda :     33.83s CPU     34.05s WALL (  202586 calls)
     cegterg:last :      6.78s CPU      6.80s WALL (  106648 calls)
     h_psi        :    230.44s CPU    232.72s WALL (  242552 calls)
     s_psi        :     29.55s CPU     29.91s WALL (  258752 calls)
     g_psi        :      3.67s CPU      3.70s WALL (  202586 calls)

     Called by h_psi:
     h_psi:calbec :      3.76s CPU      3.78s WALL (  242552 calls)
     vloc_psi     :    120.14s CPU    123.19s WALL (  242552 calls)
                                      121.68s GPU  (  242552 calls)
     add_vuspsi   :     41.02s CPU     41.49s WALL (  242552 calls)
     vhpsi        :     58.86s CPU     59.51s WALL (  242552 calls)

     General routines
     calbec       :     32.86s CPU     33.21s WALL ( 1915024 calls)
     fft          :      1.11s CPU      1.49s WALL (    4278 calls)
                                        0.39s GPU  (    3974 calls)
     ffts         :      0.39s CPU      0.40s WALL (     596 calls)
                                        0.01s GPU  (     292 calls)
     fftw         :      5.84s CPU     70.33s WALL (  739850 calls)
                                       65.68s GPU  (  739850 calls)
     interpolate  :      1.69s CPU      1.70s WALL (     304 calls)
 
     Parallel routines

     Hubbard U routines
     new_ns       :     24.98s CPU     25.14s WALL (     146 calls)
     vhpsi        :     58.86s CPU     59.51s WALL (  242552 calls)
     force_hub    :     92.09s CPU     92.75s WALL (      12 calls)
     stres_hub    :    182.38s CPU    183.81s WALL (      12 calls)
 
     PWSCF        :  17m25.49s CPU  17m44.51s WALL

 
   This run was terminated on:  21:57:13  13Oct2025            

=------------------------------------------------------------------------------=
   JOB DONE.
=------------------------------------------------------------------------------=
