
     Program PWSCF v.7.4.1 starts on 15Oct2025 at 20:38:59 

     This program is part of the open-source Quantum ESPRESSO suite
     for quantum simulation of materials; please cite
         "P. Giannozzi et al., J. Phys.:Condens. Matter 21 395502 (2009);
         "P. Giannozzi et al., J. Phys.:Condens. Matter 29 465901 (2017);
         "P. Giannozzi et al., J. Chem. Phys. 152 154105 (2020);
          URL http://www.quantum-espresso.org", 
     in publications or presentations arising from this work. More details at
     http://www.quantum-espresso.org/quote

     Parallel version (MPI & OpenMP), running on       1 processor cores
     Number of MPI processes:                 1
     Threads/MPI process:                     1

     MPI processes distributed on     1 nodes
     466454 MiB available memory on the printing compute node when the environment starts
 
     Reading input from pwscf.in
Warning: card &CELL ignored
Warning: card &FCP ignored
Warning: card &RISM ignored

     Current dimensions of program PWSCF are:
     Max number of different atomic species (ntypx) = 10
     Max number of k-points (npk) =  40000
     Max angular momentum in pseudopotentials (lmaxx) =  4
     file Fe.pbesol-spn-kjpaw_psl.0.2.1.UPF: wavefunction(s)  3D renormalized
     file O.pbesol-n-kjpaw_psl.0.1.UPF: wavefunction(s)  2P renormalized
     Message from routine setup:
     using ibrav=0 with symmetry is DISCOURAGED, use correct ibrav instead
 
     Subspace diagonalization in iterative solution of the eigenvalue problem:
     a serial algorithm will be used

 
     G-vector sticks info
     --------------------
     sticks:   dense  smooth     PW     G-vecs:    dense   smooth      PW
     Sum       22325    7429   1971              3643823   701055   95701
 
     Using Slab Decomposition
 


     bravais-lattice index     =            0
     lattice parameter (alat)  =      12.5903  a.u.
     unit-cell volume          =    6079.8008 (a.u.)^3
     number of atoms/cell      =           74
     number of atomic types    =            4
     number of electrons       =       556.00
     number of Kohn-Sham states=          334
     kinetic-energy cutoff     =      90.0000  Ry
     charge density cutoff     =    1080.0000  Ry
     scf convergence threshold =      1.5E-08
     mixing beta               =       0.4000
     number of iterations used =            8  plain     mixing
     Exchange-correlation= PBESOL
                           (   1   4  10   8   0   0   0)

     GPU acceleration is ACTIVE.  1 visible GPUs per MPI rank
     GPU-aware MPI enabled


     GPU used by master process:

        Device Number: 0
        Device name: NVIDIA A100-SXM-64GB
        Compute capability : 80
        Ratio of single to double precision performance  : 2
        Memory Clock Rate (KHz): 1593000
        Memory Bus Width (bits): 4096
        Peak Memory Bandwidth (GB/s): ******
     Hubbard projectors: ortho-atomic
     Hubbard parameters of DFT+U (Dudarev formulation) in eV:
     U(Fe-3d) =  4.5000

     Internal variables: lda_plus_u = T, lda_plus_u_kind = 0

     celldm(1)=  12.590288  celldm(2)=   0.000000  celldm(3)=   0.000000
     celldm(4)=   0.000000  celldm(5)=   0.000000  celldm(6)=   0.000000

     crystal axes: (cart. coord. in units of alat)
               a(1) = (   1.000000   0.000000   0.000000 )  
               a(2) = (   0.000000   1.638814  -0.005005 )  
               a(3) = (   0.000000   0.452856   1.857502 )  

     reciprocal axes: (cart. coord. in units 2 pi/alat)
               b(1) = (  1.000000 -0.000000  0.000000 )  
               b(2) = (  0.000000  0.609743 -0.148655 )  
               b(3) = ( -0.000000  0.001643  0.537957 )  


     PseudoPot. # 1 for Fe read from file:
     /leonardo_scratch/large/userexternal/nalghamd/mc_mace/GNoME-screening/2_space_group_DFT/pseudo_SSSP1.3_aiida/Fe.pbesol-spn-kjpaw_psl.0.2.1.UPF
     MD5 check sum: 4d7ec5aa2156491519a4322664fbbf52
     Pseudo is Projector augmented-wave + core cor, Zval = 16.0
     Generated using "atomic" code by A. Dal Corso  v.6.0 svn rev. 13079
     Shape of augmentation charge: PSQ
     Using radial grid of 1191 points,  6 beta functions with: 
                l(1) =   0
                l(2) =   0
                l(3) =   1
                l(4) =   1
                l(5) =   2
                l(6) =   2
     Q(r) pseudized with 0 coefficients 


     PseudoPot. # 2 for Na read from file:
     /leonardo_scratch/large/userexternal/nalghamd/mc_mace/GNoME-screening/2_space_group_DFT/pseudo_SSSP1.3_aiida/na_pbesol_v1.5.uspp.F.UPF
     MD5 check sum: 164b46c7694b4bc5b1217b5d1ae6f423
     Pseudo is Ultrasoft, Zval =  9.0
     Generated by new atomic code, or converted to UPF format
     Using radial grid of  819 points,  5 beta functions with: 
                l(1) =   0
                l(2) =   0
                l(3) =   1
                l(4) =   1
                l(5) =   2
     Q(r) pseudized with  8 coefficients,  rinner =    1.250   1.250   1.250
                                                       1.250   1.250

     PseudoPot. # 3 for O  read from file:
     /leonardo_scratch/large/userexternal/nalghamd/mc_mace/GNoME-screening/2_space_group_DFT/pseudo_SSSP1.3_aiida/O.pbesol-n-kjpaw_psl.0.1.UPF
     MD5 check sum: 81d73d1479e654e5638b0319f0d6c2c7
     Pseudo is Projector augmented-wave + core cor, Zval =  6.0
     Generated using "atomic" code by A. Dal Corso  v.6.0 svn rev. 13079
     Shape of augmentation charge: BESSEL
     Using radial grid of 1095 points,  4 beta functions with: 
                l(1) =   0
                l(2) =   0
                l(3) =   1
                l(4) =   1
     Q(r) pseudized with 0 coefficients 


     PseudoPot. # 4 for P  read from file:
     /leonardo_scratch/large/userexternal/nalghamd/mc_mace/GNoME-screening/2_space_group_DFT/pseudo_SSSP1.3_aiida/P.pbesol-n-rrkjus_psl.1.0.0.UPF
     MD5 check sum: bbb94b1b16383820d6a769669b5d42db
     Pseudo is Ultrasoft + core correction, Zval =  5.0
     Generated using "atomic" code by A. Dal Corso  v.6.0 svn rev. 13079
     Using radial grid of 1147 points,  6 beta functions with: 
                l(1) =   0
                l(2) =   0
                l(3) =   1
                l(4) =   1
                l(5) =   2
                l(6) =   2
     Q(r) pseudized with 0 coefficients 


     atomic species   valence    mass     pseudopotential
     Fe               16.00    55.84500     Fe( 1.00)
     Na                9.00    22.98977     Na( 1.00)
     O                 6.00    15.99940     O ( 1.00)
     P                 5.00    30.97376     P ( 1.00)

     Starting magnetic structure 
     atomic species   magnetization
     Fe              0.313
     Na              0.100
     O               0.100
     P               0.100

      4 Sym. Ops., with inversion, found ( 2 have fractional translation)


                                    s                        frac. trans.

      isym =  1     identity                                     

 cryst.   s( 1) = (     1          0          0      )
                  (     0          1          0      )
                  (     0          0          1      )

 cart.    s( 1) = (  1.0000000  0.0000000  0.0000000 )
                  (  0.0000000  1.0000000  0.0000000 )
                  (  0.0000000  0.0000000  1.0000000 )


      isym =  2     180 deg rotation - cart. axis [1,0,0]        

 cryst.   s( 2) = (     1          0          0      )    f =(  0.5000000 )
                  (     0         -1          0      )       ( -0.5000000 )
                  (     0          0         -1      )       (  0.0000000 )

 cart.    s( 2) = (  1.0000000  0.0000000  0.0000000 )    f =(  0.5000000 )
                  (  0.0000000 -1.0000000 -0.0000000 )       ( -0.8194072 )
                  (  0.0000000 -0.0000000 -1.0000000 )       (  0.0025026 )


      isym =  3     inversion                                    

 cryst.   s( 3) = (    -1          0          0      )
                  (     0         -1          0      )
                  (     0          0         -1      )

 cart.    s( 3) = ( -1.0000000  0.0000000  0.0000000 )
                  (  0.0000000 -1.0000000 -0.0000000 )
                  (  0.0000000 -0.0000000 -1.0000000 )


      isym =  4     inv. 180 deg rotation - cart. axis [1,0,0]   

 cryst.   s( 4) = (    -1          0          0      )    f =(  0.5000000 )
                  (     0          1          0      )       ( -0.5000000 )
                  (     0          0          1      )       (  0.0000000 )

 cart.    s( 4) = ( -1.0000000  0.0000000  0.0000000 )    f =(  0.5000000 )
                  (  0.0000000  1.0000000  0.0000000 )       ( -0.8194072 )
                  (  0.0000000  0.0000000  1.0000000 )       (  0.0025026 )


   Cartesian axes

     site n.     atom                  positions (alat units)
         1        Na     tau(   1) = (   0.9010240   0.8200758   0.3080261  )
         2        Na     tau(   2) = (   0.5989760   1.6394829   0.3055235  )
         3        Na     tau(   3) = (   0.4810842   0.3944100   0.6594462  )
         4        Na     tau(   4) = (   0.0189158   1.2138172   0.6569436  )
         5        Na     tau(   5) = (   0.9810842   0.8778535   1.1955534  )
         6        Na     tau(   6) = (   0.5189158   1.6972607   1.1930508  )
         7        Na     tau(   7) = (   0.4010240   0.4521878   1.5469734  )
         8        Na     tau(   8) = (   0.0989760   1.2715950   1.5444709  )
         9        Fe     tau(   9) = (   0.5000000   0.8194072  -0.0025026  )
        10        Fe     tau(  10) = (   0.2485319   0.4172496   0.2437828  )
        11        Fe     tau(  11) = (   0.0000000   0.0000000   0.0000000  )
        12        Fe     tau(  12) = (   0.2514681   1.2366567   0.2412803  )
        13        Fe     tau(  13) = (   0.0050837   0.4681163   0.6226595  )
        14        Fe     tau(  14) = (   0.4949163   1.2875235   0.6201569  )
        15        Fe     tau(  15) = (   0.5050837   0.8041472   1.2323400  )
        16        Fe     tau(  16) = (   0.9949163   1.6235544   1.2298375  )
        17        Fe     tau(  17) = (   0.7485319   0.8550140   1.6112167  )
        18        Fe     tau(  18) = (   0.7514681   1.6744211   1.6087142  )
        19        P      tau(  19) = (   0.7381344   0.4079928   0.1651569  )
        20        P      tau(  20) = (   0.7618656   1.2274000   0.1626543  )
        21        P      tau(  21) = (   0.3818587   0.8293559   0.4748665  )
        22        P      tau(  22) = (   0.1181413   1.6487630   0.4723639  )
        23        P      tau(  23) = (   0.6990347   0.8583051   0.7712136  )
        24        P      tau(  24) = (   0.8009653   1.6777123   0.7687110  )
        25        P      tau(  25) = (   0.1990347   0.4139584   1.0837860  )
        26        P      tau(  26) = (   0.3009653   1.2333656   1.0812834  )
        27        P      tau(  27) = (   0.8818587   0.4429077   1.3801331  )
        28        P      tau(  28) = (   0.6181413   1.2623149   1.3776305  )
        29        P      tau(  29) = (   0.2381344   0.8642707   1.6898426  )
        30        P      tau(  30) = (   0.2618656   1.6836779   1.6873401  )
        31        O      tau(  31) = (   0.7703880   0.2251851   0.0206860  )
        32        O      tau(  32) = (   0.7110085   0.5869398   0.0144931  )
        33        O      tau(  33) = (   0.7296120   1.0445923   0.0181834  )
        34        O      tau(  34) = (   0.7889915   1.4063469   0.0119906  )
        35        O      tau(  35) = (   0.5517572   0.3657306   0.2973678  )
        36        O      tau(  36) = (   0.9225124   0.4541690   0.3008533  )
        37        O      tau(  37) = (   0.5438855   0.8220369   0.3152413  )
        38        O      tau(  38) = (   0.2121477   0.2204562   0.5012861  )
        39        O      tau(  39) = (   0.9482428   1.1851378   0.2948652  )
        40        O      tau(  40) = (   0.5774866   1.2735761   0.2983507  )
        41        O      tau(  41) = (   0.2226979   0.6638335   0.4484542  )
        42        O      tau(  42) = (   0.9561145   1.6414441   0.3127388  )
        43        O      tau(  43) = (   0.2878523   1.0398634   0.4987836  )
        44        O      tau(  44) = (   0.7916174   0.2636691   0.7248385  )
        45        O      tau(  45) = (   0.2773021   1.4832406   0.4459517  )
        46        O      tau(  46) = (   0.8620662   0.7434675   0.6586741  )
        47        O      tau(  47) = (   0.4829768   0.7727879   0.6892852  )
        48        O      tau(  48) = (   0.1961285   0.4606985   0.8598463  )
        49        O      tau(  49) = (   0.7083826   1.0830763   0.7223359  )
        50        O      tau(  50) = (   0.6379338   1.5628747   0.6561715  )
        51        O      tau(  51) = (   0.0170232   1.5921951   0.6867826  )
        52        O      tau(  52) = (   0.3038715   1.2801057   0.8573437  )
        53        O      tau(  53) = (   0.6961285   0.8115650   0.9951533  )
        54        O      tau(  54) = (   0.9829768   0.4994756   1.1657144  )
        55        O      tau(  55) = (   0.3620662   0.5287960   1.1963255  )
        56        O      tau(  56) = (   0.2916174   1.0085944   1.1301611  )
        57        O      tau(  57) = (   0.8038715   1.6309722   0.9926507  )
        58        O      tau(  58) = (   0.5170232   1.3188828   1.1632118  )
        59        O      tau(  59) = (   0.1379338   1.3482032   1.1938229  )
        60        O      tau(  60) = (   0.7226979   0.6084301   1.4065453  )
        61        O      tau(  61) = (   0.2083826   1.8280016   1.1276585  )
        62        O      tau(  62) = (   0.7121477   1.0518073   1.3537134  )
        63        O      tau(  63) = (   0.0438855   0.4502266   1.5397582  )
        64        O      tau(  64) = (   0.7773021   1.4278372   1.4040427  )
        65        O      tau(  65) = (   0.4225124   0.8180946   1.5541463  )
        66        O      tau(  66) = (   0.0517572   0.9065329   1.5576318  )
        67        O      tau(  67) = (   0.7878523   1.8712145   1.3512109  )
        68        O      tau(  68) = (   0.4561145   1.2696338   1.5372557  )
        69        O      tau(  69) = (   0.0774876   1.6375017   1.5516437  )
        70        O      tau(  70) = (   0.4482428   1.7259401   1.5551292  )
        71        O      tau(  71) = (   0.2110085   0.6853238   1.8405064  )
        72        O      tau(  72) = (   0.2703880   1.0470784   1.8343135  )
        73        O      tau(  73) = (   0.2889915   1.5047309   1.8380039  )
        74        O      tau(  74) = (   0.2296120   1.8664856   1.8318110  )

   Crystallographic axes

     site n.     atom                  positions (cryst. coord.)
         1        Na     tau(   1) = (  0.9010240  0.4542462  0.1670521  )
         2        Na     tau(   2) = (  0.5989760  0.9542462  0.1670521  )
         3        Na     tau(   3) = (  0.4810842  0.1424592  0.3554016  )
         4        Na     tau(   4) = (  0.0189158  0.6424592  0.3554016  )
         5        Na     tau(   5) = (  0.9810842  0.3575408  0.6445984  )
         6        Na     tau(   6) = (  0.5189158  0.8575408  0.6445984  )
         7        Na     tau(   7) = (  0.4010240  0.0457538  0.8329479  )
         8        Na     tau(   8) = (  0.0989760  0.5457538  0.8329479  )
         9        Fe     tau(   9) = (  0.5000000  0.5000000 -0.0000000  )
        10        Fe     tau(  10) = (  0.2485319  0.2181757  0.1318302  )
        11        Fe     tau(  11) = (  0.0000000  0.0000000  0.0000000  )
        12        Fe     tau(  12) = (  0.2514681  0.7181757  0.1318302  )
        13        Fe     tau(  13) = (  0.0050837  0.1928696  0.3357330  )
        14        Fe     tau(  14) = (  0.4949163  0.6928696  0.3357330  )
        15        Fe     tau(  15) = (  0.5050837  0.3071304  0.6642670  )
        16        Fe     tau(  16) = (  0.9949163  0.8071304  0.6642670  )
        17        Fe     tau(  17) = (  0.7485319  0.2818243  0.8681698  )
        18        Fe     tau(  18) = (  0.7514681  0.7818243  0.8681698  )
        19        P      tau(  19) = (  0.7381344  0.2242196  0.0895176  )
        20        P      tau(  20) = (  0.7618656  0.7242196  0.0895176  )
        21        P      tau(  21) = (  0.3818587  0.4351031  0.2568203  )
        22        P      tau(  22) = (  0.1181413  0.9351031  0.2568203  )
        23        P      tau(  23) = (  0.6990347  0.4087014  0.4162898  )
        24        P      tau(  24) = (  0.8009653  0.9087014  0.4162898  )
        25        P      tau(  25) = (  0.1990347  0.0912986  0.5837102  )
        26        P      tau(  26) = (  0.3009653  0.5912986  0.5837102  )
        27        P      tau(  27) = (  0.8818587  0.0648969  0.7431797  )
        28        P      tau(  28) = (  0.6181413  0.5648969  0.7431797  )
        29        P      tau(  29) = (  0.2381344  0.2757804  0.9104824  )
        30        P      tau(  30) = (  0.2618656  0.7757804  0.9104824  )
        31        O      tau(  31) = (  0.7703880  0.1342300  0.0114982  )
        32        O      tau(  32) = (  0.7110085  0.3557281  0.0087610  )
        33        O      tau(  33) = (  0.7296120  0.6342300  0.0114982  )
        34        O      tau(  34) = (  0.7889915  0.8557281  0.0087610  )
        35        O      tau(  35) = (  0.5517572  0.1787967  0.1605719  )
        36        O      tau(  36) = (  0.9225124  0.2322033  0.1625923  )
        37        O      tau(  37) = (  0.5438855  0.4543694  0.1709368  )
        38        O      tau(  38) = (  0.2121477  0.0599032  0.2700325  )
        39        O      tau(  39) = (  0.9482428  0.6787967  0.1605719  )
        40        O      tau(  40) = (  0.5774866  0.7322033  0.1625923  )
        41        O      tau(  41) = (  0.2226979  0.3381032  0.2423397  )
        42        O      tau(  42) = (  0.9561145  0.9543694  0.1709368  )
        43        O      tau(  43) = (  0.2878523  0.5599032  0.2700325  )
        44        O      tau(  44) = (  0.7916174  0.0530199  0.3903650  )
        45        O      tau(  45) = (  0.2773021  0.8381032  0.2423397  )
        46        O      tau(  46) = (  0.8620662  0.3554094  0.3555597  )
        47        O      tau(  47) = (  0.4829768  0.3687368  0.3720754  )
        48        O      tau(  48) = (  0.1961285  0.1530878  0.4633171  )
        49        O      tau(  49) = (  0.7083826  0.5530199  0.3903650  )
        50        O      tau(  50) = (  0.6379338  0.8554094  0.3555597  )
        51        O      tau(  51) = (  0.0170232  0.8687368  0.3720754  )
        52        O      tau(  52) = (  0.3038715  0.6530878  0.4633171  )
        53        O      tau(  53) = (  0.6961285  0.3469122  0.5366829  )
        54        O      tau(  54) = (  0.9829768  0.1312632  0.6279246  )
        55        O      tau(  55) = (  0.3620662  0.1445906  0.6444403  )
        56        O      tau(  56) = (  0.2916174  0.4469801  0.6096350  )
        57        O      tau(  57) = (  0.8038715  0.8469122  0.5366829  )
        58        O      tau(  58) = (  0.5170232  0.6312632  0.6279246  )
        59        O      tau(  59) = (  0.1379338  0.6445906  0.6444403  )
        60        O      tau(  60) = (  0.7226979  0.1618968  0.7576603  )
        61        O      tau(  61) = (  0.2083826  0.9469801  0.6096350  )
        62        O      tau(  62) = (  0.7121477  0.4400968  0.7299675  )
        63        O      tau(  63) = (  0.0438855  0.0456306  0.8290632  )
        64        O      tau(  64) = (  0.7773021  0.6618968  0.7576603  )
        65        O      tau(  65) = (  0.4225124  0.2677967  0.8374077  )
        66        O      tau(  66) = (  0.0517572  0.3212033  0.8394281  )
        67        O      tau(  67) = (  0.7878523  0.9400968  0.7299675  )
        68        O      tau(  68) = (  0.4561145  0.5456306  0.8290632  )
        69        O      tau(  69) = (  0.0774876  0.7677967  0.8374077  )
        70        O      tau(  70) = (  0.4482428  0.8212033  0.8394281  )
        71        O      tau(  71) = (  0.2110085  0.1442719  0.9912390  )
        72        O      tau(  72) = (  0.2703880  0.3657700  0.9885018  )
        73        O      tau(  73) = (  0.2889915  0.6442719  0.9912390  )
        74        O      tau(  74) = (  0.2296120  0.8657700  0.9885018  )

     number of k points=    40  Marzari-Vanderbilt smearing, width (Ry)=  0.0200
                       cart. coord. in units 2pi/alat
        k(    1) = (   0.0000000   0.0000000   0.0000000), wk =   0.0089286
        k(    2) = (   0.0000000   0.0004107   0.1344892), wk =   0.0178571
        k(    3) = (   0.0000000  -0.0008215  -0.2689784), wk =   0.0089286
        k(    4) = (   0.0000000   0.1524358  -0.0371636), wk =   0.0178571
        k(    5) = (   0.0000000   0.1528466   0.0973256), wk =   0.0178571
        k(    6) = (   0.0000000   0.1516143  -0.3061421), wk =   0.0178571
        k(    7) = (   0.0000000   0.1520251  -0.1716528), wk =   0.0178571
        k(    8) = (   0.0000000  -0.3048716   0.0743273), wk =   0.0089286
        k(    9) = (   0.0000000  -0.3044609   0.2088165), wk =   0.0178571
        k(   10) = (   0.0000000  -0.3056931  -0.1946511), wk =   0.0089286
        k(   11) = (   0.1428571   0.0000000   0.0000000), wk =   0.0178571
        k(   12) = (   0.1428571   0.0004107   0.1344892), wk =   0.0357143
        k(   13) = (   0.1428571  -0.0008215  -0.2689784), wk =   0.0178571
        k(   14) = (   0.1428571   0.1524358  -0.0371636), wk =   0.0357143
        k(   15) = (   0.1428571   0.1528466   0.0973256), wk =   0.0357143
        k(   16) = (   0.1428571   0.1516143  -0.3061421), wk =   0.0357143
        k(   17) = (   0.1428571   0.1520251  -0.1716528), wk =   0.0357143
        k(   18) = (   0.1428571  -0.3048716   0.0743273), wk =   0.0178571
        k(   19) = (   0.1428571  -0.3044609   0.2088165), wk =   0.0357143
        k(   20) = (   0.1428571  -0.3056931  -0.1946511), wk =   0.0178571
        k(   21) = (   0.2857143   0.0000000   0.0000000), wk =   0.0178571
        k(   22) = (   0.2857143   0.0004107   0.1344892), wk =   0.0357143
        k(   23) = (   0.2857143  -0.0008215  -0.2689784), wk =   0.0178571
        k(   24) = (   0.2857143   0.1524358  -0.0371636), wk =   0.0357143
        k(   25) = (   0.2857143   0.1528466   0.0973256), wk =   0.0357143
        k(   26) = (   0.2857143   0.1516143  -0.3061421), wk =   0.0357143
        k(   27) = (   0.2857143   0.1520251  -0.1716528), wk =   0.0357143
        k(   28) = (   0.2857143  -0.3048716   0.0743273), wk =   0.0178571
        k(   29) = (   0.2857143  -0.3044609   0.2088165), wk =   0.0357143
        k(   30) = (   0.2857143  -0.3056931  -0.1946511), wk =   0.0178571
        k(   31) = (   0.4285714   0.0000000   0.0000000), wk =   0.0178571
        k(   32) = (   0.4285714   0.0004107   0.1344892), wk =   0.0357143
        k(   33) = (   0.4285714  -0.0008215  -0.2689784), wk =   0.0178571
        k(   34) = (   0.4285714   0.1524358  -0.0371636), wk =   0.0357143
        k(   35) = (   0.4285714   0.1528466   0.0973256), wk =   0.0357143
        k(   36) = (   0.4285714   0.1516143  -0.3061421), wk =   0.0357143
        k(   37) = (   0.4285714   0.1520251  -0.1716528), wk =   0.0357143
        k(   38) = (   0.4285714  -0.3048716   0.0743273), wk =   0.0178571
        k(   39) = (   0.4285714  -0.3044609   0.2088165), wk =   0.0357143
        k(   40) = (   0.4285714  -0.3056931  -0.1946511), wk =   0.0178571

                       cryst. coord.
        k(    1) = (   0.0000000   0.0000000   0.0000000), wk =   0.0089286
        k(    2) = (   0.0000000  -0.0000000   0.2500000), wk =   0.0178571
        k(    3) = (   0.0000000   0.0000000  -0.5000000), wk =   0.0089286
        k(    4) = (   0.0000000   0.2500000  -0.0000000), wk =   0.0178571
        k(    5) = (   0.0000000   0.2500000   0.2500000), wk =   0.0178571
        k(    6) = (   0.0000000   0.2500000  -0.5000000), wk =   0.0178571
        k(    7) = (   0.0000000   0.2500000  -0.2500000), wk =   0.0178571
        k(    8) = (   0.0000000  -0.5000000   0.0000000), wk =   0.0089286
        k(    9) = (   0.0000000  -0.5000000   0.2500000), wk =   0.0178571
        k(   10) = (   0.0000000  -0.5000000  -0.5000000), wk =   0.0089286
        k(   11) = (   0.1428571   0.0000000   0.0000000), wk =   0.0178571
        k(   12) = (   0.1428571  -0.0000000   0.2500000), wk =   0.0357143
        k(   13) = (   0.1428571   0.0000000  -0.5000000), wk =   0.0178571
        k(   14) = (   0.1428571   0.2500000  -0.0000000), wk =   0.0357143
        k(   15) = (   0.1428571   0.2500000   0.2500000), wk =   0.0357143
        k(   16) = (   0.1428571   0.2500000  -0.5000000), wk =   0.0357143
        k(   17) = (   0.1428571   0.2500000  -0.2500000), wk =   0.0357143
        k(   18) = (   0.1428571  -0.5000000   0.0000000), wk =   0.0178571
        k(   19) = (   0.1428571  -0.5000000   0.2500000), wk =   0.0357143
        k(   20) = (   0.1428571  -0.5000000  -0.5000000), wk =   0.0178571
        k(   21) = (   0.2857143   0.0000000   0.0000000), wk =   0.0178571
        k(   22) = (   0.2857143  -0.0000000   0.2500000), wk =   0.0357143
        k(   23) = (   0.2857143   0.0000000  -0.5000000), wk =   0.0178571
        k(   24) = (   0.2857143   0.2500000  -0.0000000), wk =   0.0357143
        k(   25) = (   0.2857143   0.2500000   0.2500000), wk =   0.0357143
        k(   26) = (   0.2857143   0.2500000  -0.5000000), wk =   0.0357143
        k(   27) = (   0.2857143   0.2500000  -0.2500000), wk =   0.0357143
        k(   28) = (   0.2857143  -0.5000000   0.0000000), wk =   0.0178571
        k(   29) = (   0.2857143  -0.5000000   0.2500000), wk =   0.0357143
        k(   30) = (   0.2857143  -0.5000000  -0.5000000), wk =   0.0178571
        k(   31) = (   0.4285714   0.0000000   0.0000000), wk =   0.0178571
        k(   32) = (   0.4285714  -0.0000000   0.2500000), wk =   0.0357143
        k(   33) = (   0.4285714   0.0000000  -0.5000000), wk =   0.0178571
        k(   34) = (   0.4285714   0.2500000  -0.0000000), wk =   0.0357143
        k(   35) = (   0.4285714   0.2500000   0.2500000), wk =   0.0357143
        k(   36) = (   0.4285714   0.2500000  -0.5000000), wk =   0.0357143
        k(   37) = (   0.4285714   0.2500000  -0.2500000), wk =   0.0357143
        k(   38) = (   0.4285714  -0.5000000   0.0000000), wk =   0.0178571
        k(   39) = (   0.4285714  -0.5000000   0.2500000), wk =   0.0357143
        k(   40) = (   0.4285714  -0.5000000  -0.5000000), wk =   0.0178571

     Dense  grid:  3643823 G-vectors     FFT dimensions: ( 144, 216, 256)

     Smooth grid:   701055 G-vectors     FFT dimensions: (  80, 128, 150)

     Dynamical RAM for                 wfc:     446.75 MB

     Dynamical RAM for     wfc (w. buffer):   36187.04 MB

     Dynamical RAM for             U proj.:      66.88 MB

     Dynamical RAM for  U proj. (w. buff.):    5417.22 MB

     Dynamical RAM for           str. fact:     222.40 MB

     Dynamical RAM for           local pot:       0.00 MB

     Dynamical RAM for          nlocal pot:    1139.62 MB

     Dynamical RAM for                qrad:      10.54 MB

     Dynamical RAM for          rho,v,vnew:     698.10 MB

     Dynamical RAM for               rhoin:     232.70 MB

     Dynamical RAM for            rho*nmix:    1779.21 MB

     Dynamical RAM for           G-vectors:     213.85 MB

     Dynamical RAM for          h,s,v(r/c):      20.43 MB

     Dynamical RAM for          <psi|beta>:       4.34 MB

     Dynamical RAM for                 psi:     893.51 MB

     Dynamical RAM for                hpsi:     893.51 MB

     Dynamical RAM for                spsi:     893.51 MB

     Dynamical RAM for      wfcinit/wfcrot:     896.06 MB

     Dynamical RAM for           addusdens:   12843.68 MB

     Dynamical RAM for          addusforce:   17625.65 MB

     Dynamical RAM for         addusstress:   11259.07 MB

     Estimated static dynamical RAM per process >      43.71 GB

     Estimated max dynamical RAM per process >      62.66 GB

     Atomic positions and unit cell read from directory:
     ./out/aiida.save/
 

     Check: negative core charge=   -0.000003
     Generating pointlists ...
     new r_m :   0.1257 (alat units)  1.5822 (a.u.) for type    1
     new r_m :   0.1416 (alat units)  1.7825 (a.u.) for type    2
     new r_m :   0.0939 (alat units)  1.1819 (a.u.) for type    3
     new r_m :   0.0939 (alat units)  1.1819 (a.u.) for type    4

     The initial density is read from file :
     ./out/aiida.save/charge-density


     negative rho (up, down):  0.000E+00 1.631E-03

     HUBBARD ENERGY =    0.4207  (Ry)

     STARTING HUBBARD OCCUPATIONS:

     =================== HUBBARD OCCUPATIONS ===================
     ------------------------ ATOM    9 ------------------------
     Tr[ns(  9)] (up, down, total) =   4.97912  1.22368  6.20280
     Atomic magnetic moment for atom   9 =   3.75543
     SPIN  1
     eigenvalues:
       0.993  0.993  0.996  0.998  0.998
     eigenvectors (columns):
       0.836 -0.067 -0.541 -0.064 -0.027
      -0.501  0.239 -0.786 -0.036 -0.269
      -0.017  0.021 -0.156  0.909  0.385
      -0.109  0.115 -0.178 -0.408  0.881
       0.196  0.962  0.182  0.033 -0.049
     occupation matrix ns (before diag.):
       0.994  0.002 -0.000  0.000 -0.000
       0.002  0.995 -0.000 -0.001 -0.000
      -0.000 -0.000  0.998 -0.000 -0.000
       0.000 -0.001 -0.000  0.998 -0.000
      -0.000 -0.000 -0.000 -0.000  0.993
     SPIN  2
     eigenvalues:
       0.024  0.029  0.085  0.100  0.985
     eigenvectors (columns):
      -0.027 -0.143 -0.869 -0.471 -0.034
       0.091 -0.390  0.082  0.027 -0.912
      -0.956  0.121 -0.092  0.199 -0.150
       0.160  0.901 -0.083 -0.102 -0.380
      -0.225 -0.013  0.472 -0.853  0.001
     occupation matrix ns (before diag.):
       0.089  0.025  0.003  0.020  0.006
       0.025  0.825  0.131  0.331  0.000
       0.003  0.131  0.049  0.054 -0.016
       0.020  0.331  0.054  0.168  0.004
       0.006  0.000 -0.016  0.004  0.093
     ------------------------ ATOM   10 ------------------------
     Tr[ns( 10)] (up, down, total) =   4.98134  1.23429  6.21563
     Atomic magnetic moment for atom  10 =   3.74705
     SPIN  1
     eigenvalues:
       0.994  0.995  0.996  0.998  0.999
     eigenvectors (columns):
       0.835  0.368 -0.264  0.270  0.159
       0.274  0.025 -0.075 -0.958  0.004
      -0.135  0.810  0.546 -0.061 -0.154
      -0.458  0.445 -0.682 -0.064  0.350
       0.006 -0.098  0.401 -0.029  0.910
     occupation matrix ns (before diag.):
       0.995 -0.001 -0.000  0.000  0.000
      -0.001  0.998  0.000  0.000  0.000
      -0.000  0.000  0.995 -0.001 -0.000
       0.000  0.000 -0.001  0.996  0.001
       0.000  0.000 -0.000  0.001  0.998
     SPIN  2
     eigenvalues:
       0.028  0.032  0.091  0.099  0.985
     eigenvectors (columns):
       0.139 -0.275 -0.020  0.573 -0.759
       0.390  0.892  0.083  0.067 -0.204
      -0.059 -0.052  0.975  0.173  0.113
       0.364 -0.220  0.197 -0.767 -0.438
       0.832 -0.279 -0.052  0.221  0.422
     occupation matrix ns (before diag.):
       0.603  0.150 -0.076  0.287 -0.297
       0.150  0.072 -0.016  0.082 -0.083
      -0.076 -0.016  0.102 -0.044  0.045
       0.287  0.082 -0.044  0.256 -0.189
      -0.297 -0.083  0.045 -0.189  0.202
     ------------------------ ATOM   11 ------------------------
     Tr[ns( 11)] (up, down, total) =   4.97912  1.22368  6.20280
     Atomic magnetic moment for atom  11 =   3.75543
     SPIN  1
     eigenvalues:
       0.993  0.993  0.996  0.998  0.998
     eigenvectors (columns):
       0.836  0.067 -0.541 -0.064  0.027
       0.501  0.239  0.786  0.036 -0.269
      -0.017 -0.021 -0.156  0.909 -0.385
      -0.109 -0.115 -0.178 -0.408 -0.881
      -0.196  0.962 -0.182 -0.033 -0.049
     occupation matrix ns (before diag.):
       0.994 -0.002 -0.000  0.000  0.000
      -0.002  0.995  0.000  0.001 -0.000
      -0.000  0.000  0.998 -0.000  0.000
       0.000  0.001 -0.000  0.998  0.000
       0.000 -0.000  0.000  0.000  0.993
     SPIN  2
     eigenvalues:
       0.024  0.029  0.085  0.100  0.985
     eigenvectors (columns):
       0.027 -0.143 -0.869 -0.471  0.034
       0.091  0.390 -0.082 -0.027 -0.912
       0.956  0.121 -0.092  0.199  0.150
      -0.160  0.901 -0.083 -0.102  0.380
      -0.225  0.013 -0.472  0.853  0.001
     occupation matrix ns (before diag.):
       0.089 -0.025  0.003  0.020 -0.006
      -0.025  0.825 -0.131 -0.331  0.000
       0.003 -0.131  0.049  0.054  0.016
       0.020 -0.331  0.054  0.168 -0.004
      -0.006  0.000  0.016 -0.004  0.093
     ------------------------ ATOM   12 ------------------------
     Tr[ns( 12)] (up, down, total) =   4.98134  1.23429  6.21563
     Atomic magnetic moment for atom  12 =   3.74705
     SPIN  1
     eigenvalues:
       0.994  0.995  0.996  0.998  0.999
     eigenvectors (columns):
       0.835 -0.368 -0.264  0.270 -0.159
      -0.274  0.025  0.075  0.958  0.004
      -0.135 -0.810  0.546 -0.061  0.154
      -0.458 -0.445 -0.682 -0.064 -0.350
      -0.006 -0.098 -0.401  0.029  0.910
     occupation matrix ns (before diag.):
       0.995  0.001 -0.000  0.000 -0.000
       0.001  0.998 -0.000 -0.000  0.000
      -0.000 -0.000  0.995 -0.001  0.000
       0.000 -0.000 -0.001  0.996 -0.001
      -0.000  0.000  0.000 -0.001  0.998
     SPIN  2
     eigenvalues:
       0.028  0.032  0.091  0.099  0.985
     eigenvectors (columns):
       0.139 -0.275 -0.020 -0.573  0.759
      -0.390 -0.892 -0.083  0.067 -0.204
      -0.059 -0.052  0.975 -0.173 -0.113
       0.364 -0.220  0.197  0.767  0.438
      -0.832  0.279  0.052  0.221  0.422
     occupation matrix ns (before diag.):
       0.603 -0.150 -0.076  0.287  0.297
      -0.150  0.072  0.016 -0.082 -0.083
      -0.076  0.016  0.102 -0.044 -0.045
       0.287 -0.082 -0.044  0.256  0.189
       0.297 -0.083 -0.045  0.189  0.202
     ------------------------ ATOM   13 ------------------------
     Tr[ns( 13)] (up, down, total) =   4.97843  1.21802  6.19645
     Atomic magnetic moment for atom  13 =   3.76040
     SPIN  1
     eigenvalues:
       0.993  0.993  0.996  0.997  0.998
     eigenvectors (columns):
      -0.394  0.397  0.145 -0.794 -0.189
       0.788 -0.189  0.432 -0.382 -0.101
       0.189  0.206 -0.317  0.164 -0.891
      -0.049  0.549  0.707  0.440 -0.054
       0.431  0.680 -0.439 -0.048  0.396
     occupation matrix ns (before diag.):
       0.996  0.002  0.000 -0.001 -0.000
       0.002  0.994 -0.000  0.000 -0.001
       0.000 -0.000  0.998 -0.000 -0.001
      -0.001  0.000 -0.000  0.996 -0.001
      -0.000 -0.001 -0.001 -0.001  0.995
     SPIN  2
     eigenvalues:
       0.027  0.034  0.073  0.096  0.989
     eigenvectors (columns):
       0.719 -0.131  0.098  0.675 -0.000
       0.608 -0.101  0.109 -0.684 -0.375
       0.120  0.877  0.446 -0.023  0.128
      -0.273  0.067  0.211  0.273 -0.896
      -0.155 -0.445  0.857 -0.046  0.202
     occupation matrix ns (before diag.):
       0.059 -0.031  0.000  0.014  0.002
      -0.031  0.195 -0.043  0.311 -0.066
       0.000 -0.043  0.057 -0.106  0.040
       0.014  0.311 -0.106  0.806 -0.166
       0.002 -0.066  0.040 -0.166  0.101
     ------------------------ ATOM   14 ------------------------
     Tr[ns( 14)] (up, down, total) =   4.97843  1.21802  6.19645
     Atomic magnetic moment for atom  14 =   3.76040
     SPIN  1
     eigenvalues:
       0.993  0.993  0.996  0.997  0.998
     eigenvectors (columns):
      -0.394 -0.397  0.145 -0.794  0.189
      -0.788 -0.189 -0.432  0.382 -0.101
       0.189 -0.206 -0.317  0.164  0.891
      -0.049 -0.549  0.707  0.440  0.054
      -0.431  0.680  0.439  0.048  0.396
     occupation matrix ns (before diag.):
       0.996 -0.002  0.000 -0.001  0.000
      -0.002  0.994  0.000 -0.000 -0.001
       0.000  0.000  0.998 -0.000  0.001
      -0.001 -0.000 -0.000  0.996  0.001
       0.000 -0.001  0.001  0.001  0.995
     SPIN  2
     eigenvalues:
       0.027  0.034  0.073  0.096  0.989
     eigenvectors (columns):
       0.719  0.131  0.098  0.675  0.000
      -0.608 -0.101 -0.109  0.684 -0.375
       0.120 -0.877  0.446 -0.023 -0.128
      -0.273 -0.067  0.211  0.273  0.896
       0.155 -0.445 -0.857  0.046  0.202
     occupation matrix ns (before diag.):
       0.059  0.031  0.000  0.014 -0.002
       0.031  0.195  0.043 -0.311 -0.066
       0.000  0.043  0.057 -0.106 -0.040
       0.014 -0.311 -0.106  0.806  0.166
      -0.002 -0.066 -0.040  0.166  0.101
     ------------------------ ATOM   15 ------------------------
     Tr[ns( 15)] (up, down, total) =   4.97843  1.21802  6.19645
     Atomic magnetic moment for atom  15 =   3.76040
     SPIN  1
     eigenvalues:
       0.993  0.993  0.996  0.997  0.998
     eigenvectors (columns):
      -0.394 -0.397  0.145 -0.794  0.189
      -0.788 -0.189 -0.432  0.382 -0.101
       0.189 -0.206 -0.317  0.164  0.891
      -0.049 -0.549  0.707  0.440  0.054
      -0.431  0.680  0.439  0.048  0.396
     occupation matrix ns (before diag.):
       0.996 -0.002  0.000 -0.001  0.000
      -0.002  0.994  0.000 -0.000 -0.001
       0.000  0.000  0.998 -0.000  0.001
      -0.001 -0.000 -0.000  0.996  0.001
       0.000 -0.001  0.001  0.001  0.995
     SPIN  2
     eigenvalues:
       0.027  0.034  0.073  0.096  0.989
     eigenvectors (columns):
       0.719  0.131  0.098  0.675  0.000
      -0.608 -0.101 -0.109  0.684 -0.375
       0.120 -0.877  0.446 -0.023 -0.128
      -0.273 -0.067  0.211  0.273  0.896
       0.155 -0.445 -0.857  0.046  0.202
     occupation matrix ns (before diag.):
       0.059  0.031  0.000  0.014 -0.002
       0.031  0.195  0.043 -0.311 -0.066
       0.000  0.043  0.057 -0.106 -0.040
       0.014 -0.311 -0.106  0.806  0.166
      -0.002 -0.066 -0.040  0.166  0.101
     ------------------------ ATOM   16 ------------------------
     Tr[ns( 16)] (up, down, total) =   4.97843  1.21802  6.19645
     Atomic magnetic moment for atom  16 =   3.76040
     SPIN  1
     eigenvalues:
       0.993  0.993  0.996  0.997  0.998
     eigenvectors (columns):
      -0.394  0.397  0.145 -0.794 -0.189
       0.788 -0.189  0.432 -0.382 -0.101
       0.189  0.206 -0.317  0.164 -0.891
      -0.049  0.549  0.707  0.440 -0.054
       0.431  0.680 -0.439 -0.048  0.396
     occupation matrix ns (before diag.):
       0.996  0.002  0.000 -0.001 -0.000
       0.002  0.994 -0.000  0.000 -0.001
       0.000 -0.000  0.998 -0.000 -0.001
      -0.001  0.000 -0.000  0.996 -0.001
      -0.000 -0.001 -0.001 -0.001  0.995
     SPIN  2
     eigenvalues:
       0.027  0.034  0.073  0.096  0.989
     eigenvectors (columns):
       0.719 -0.131  0.098  0.675 -0.000
       0.608 -0.101  0.109 -0.684 -0.375
       0.120  0.877  0.446 -0.023  0.128
      -0.273  0.067  0.211  0.273 -0.896
      -0.155 -0.445  0.857 -0.046  0.202
     occupation matrix ns (before diag.):
       0.059 -0.031  0.000  0.014  0.002
      -0.031  0.195 -0.043  0.311 -0.066
       0.000 -0.043  0.057 -0.106  0.040
       0.014  0.311 -0.106  0.806 -0.166
       0.002 -0.066  0.040 -0.166  0.101
     ------------------------ ATOM   17 ------------------------
     Tr[ns( 17)] (up, down, total) =   4.98134  1.23429  6.21563
     Atomic magnetic moment for atom  17 =   3.74705
     SPIN  1
     eigenvalues:
       0.994  0.995  0.996  0.998  0.999
     eigenvectors (columns):
       0.835 -0.368 -0.264  0.270 -0.159
      -0.274  0.025  0.075  0.958  0.004
      -0.135 -0.810  0.546 -0.061  0.154
      -0.458 -0.445 -0.682 -0.064 -0.350
      -0.006 -0.098 -0.401  0.029  0.910
     occupation matrix ns (before diag.):
       0.995  0.001 -0.000  0.000 -0.000
       0.001  0.998 -0.000 -0.000  0.000
      -0.000 -0.000  0.995 -0.001  0.000
       0.000 -0.000 -0.001  0.996 -0.001
      -0.000  0.000  0.000 -0.001  0.998
     SPIN  2
     eigenvalues:
       0.028  0.032  0.091  0.099  0.985
     eigenvectors (columns):
       0.139 -0.275 -0.020 -0.573  0.759
      -0.390 -0.892 -0.083  0.067 -0.204
      -0.059 -0.052  0.975 -0.173 -0.113
       0.364 -0.220  0.197  0.767  0.438
      -0.832  0.279  0.052  0.221  0.422
     occupation matrix ns (before diag.):
       0.603 -0.150 -0.076  0.287  0.297
      -0.150  0.072  0.016 -0.082 -0.083
      -0.076  0.016  0.102 -0.044 -0.045
       0.287 -0.082 -0.044  0.256  0.189
       0.297 -0.083 -0.045  0.189  0.202
     ------------------------ ATOM   18 ------------------------
     Tr[ns( 18)] (up, down, total) =   4.98134  1.23429  6.21563
     Atomic magnetic moment for atom  18 =   3.74705
     SPIN  1
     eigenvalues:
       0.994  0.995  0.996  0.998  0.999
     eigenvectors (columns):
       0.835  0.368 -0.264  0.270  0.159
       0.274  0.025 -0.075 -0.958  0.004
      -0.135  0.810  0.546 -0.061 -0.154
      -0.458  0.445 -0.682 -0.064  0.350
       0.006 -0.098  0.401 -0.029  0.910
     occupation matrix ns (before diag.):
       0.995 -0.001 -0.000  0.000  0.000
      -0.001  0.998  0.000  0.000  0.000
      -0.000  0.000  0.995 -0.001 -0.000
       0.000  0.000 -0.001  0.996  0.001
       0.000  0.000 -0.000  0.001  0.998
     SPIN  2
     eigenvalues:
       0.028  0.032  0.091  0.099  0.985
     eigenvectors (columns):
       0.139 -0.275 -0.020  0.573 -0.759
       0.390  0.892  0.083  0.067 -0.204
      -0.059 -0.052  0.975  0.173  0.113
       0.364 -0.220  0.197 -0.767 -0.438
       0.832 -0.279 -0.052  0.221  0.422
     occupation matrix ns (before diag.):
       0.603  0.150 -0.076  0.287 -0.297
       0.150  0.072 -0.016  0.082 -0.083
      -0.076 -0.016  0.102 -0.044  0.045
       0.287  0.082 -0.044  0.256 -0.189
      -0.297 -0.083  0.045 -0.189  0.202

     Number of occupied Hubbard levels =   62.0539

     Atomic wfc used for Hubbard projectors are orthogonalized

     Starting wfcs from file
     Checking if some PAW data can be deallocated... 

     total cpu time spent up to now is       73.2 secs

     Self-consistent Calculation
[tb_dev] Currently allocated     9.87E+00 Mbytes, locked:    0 /   3
[tb_pin] Currently allocated     0.00E+00 Mbytes, locked:    0 /   0

     iteration #  1     ecut=    90.00 Ry     beta= 0.40
     Davidson diagonalization with overlap

---- Real-time Memory Report at c_bands before calling an iterative solver
         45357 MiB given to the printing process from OS
             0 MiB allocation reported by mallinfo(arena+hblkhd)
        387674 MiB available memory on the node where the printing process lives
     GPU memory used/free/total (MiB): 21780 / 43164 / 64944
------------------
     ethr =  1.00E-05,  avg # of iterations =  1.0

     =================== HUBBARD OCCUPATIONS ===================
     ------------------------ ATOM    9 ------------------------
     Tr[ns(  9)] (up, down, total) =   4.97912  1.22368  6.20280
     Atomic magnetic moment for atom   9 =   3.75543
     SPIN  1
     eigenvalues:
       0.993  0.993  0.996  0.998  0.998
     eigenvectors (columns):
       0.836 -0.067 -0.541 -0.064 -0.027
      -0.501  0.239 -0.786 -0.036 -0.269
      -0.017  0.021 -0.156  0.909  0.385
      -0.109  0.115 -0.178 -0.408  0.881
       0.196  0.962  0.182  0.033 -0.049
     occupation matrix ns (before diag.):
       0.994  0.002 -0.000  0.000 -0.000
       0.002  0.995 -0.000 -0.001 -0.000
      -0.000 -0.000  0.998 -0.000 -0.000
       0.000 -0.001 -0.000  0.998 -0.000
      -0.000 -0.000 -0.000 -0.000  0.993
     SPIN  2
     eigenvalues:
       0.024  0.029  0.085  0.100  0.985
     eigenvectors (columns):
      -0.027 -0.143 -0.869 -0.471 -0.034
       0.091 -0.390  0.082  0.027 -0.912
      -0.956  0.121 -0.092  0.199 -0.150
       0.160  0.901 -0.083 -0.102 -0.380
      -0.225 -0.013  0.472 -0.853  0.001
     occupation matrix ns (before diag.):
       0.089  0.025  0.003  0.020  0.006
       0.025  0.825  0.131  0.331  0.000
       0.003  0.131  0.049  0.054 -0.016
       0.020  0.331  0.054  0.168  0.004
       0.006  0.000 -0.016  0.004  0.093
     ------------------------ ATOM   10 ------------------------
     Tr[ns( 10)] (up, down, total) =   4.98134  1.23429  6.21563
     Atomic magnetic moment for atom  10 =   3.74705
     SPIN  1
     eigenvalues:
       0.994  0.995  0.996  0.998  0.999
     eigenvectors (columns):
       0.835  0.368 -0.264  0.270  0.159
       0.274  0.025 -0.075 -0.958  0.004
      -0.135  0.810  0.546 -0.061 -0.154
      -0.458  0.446 -0.682 -0.064  0.350
       0.006 -0.098  0.401 -0.029  0.910
     occupation matrix ns (before diag.):
       0.995 -0.001 -0.000  0.000  0.000
      -0.001  0.998  0.000  0.000  0.000
      -0.000  0.000  0.995 -0.001 -0.000
       0.000  0.000 -0.001  0.996  0.001
       0.000  0.000 -0.000  0.001  0.998
     SPIN  2
     eigenvalues:
       0.028  0.032  0.091  0.099  0.985
     eigenvectors (columns):
       0.139 -0.275 -0.020  0.573 -0.759
       0.390  0.892  0.083  0.067 -0.204
      -0.059 -0.052  0.975  0.172  0.113
       0.364 -0.220  0.197 -0.767 -0.438
       0.832 -0.279 -0.052  0.221  0.422
     occupation matrix ns (before diag.):
       0.603  0.149 -0.076  0.287 -0.297
       0.149  0.072 -0.016  0.082 -0.083
      -0.076 -0.016  0.102 -0.044  0.045
       0.287  0.082 -0.044  0.256 -0.189
      -0.297 -0.083  0.045 -0.189  0.202
     ------------------------ ATOM   11 ------------------------
     Tr[ns( 11)] (up, down, total) =   4.97912  1.22368  6.20280
     Atomic magnetic moment for atom  11 =   3.75543
     SPIN  1
     eigenvalues:
       0.993  0.993  0.996  0.998  0.998
     eigenvectors (columns):
       0.836  0.067 -0.541 -0.064  0.027
       0.501  0.239  0.786  0.036 -0.269
      -0.017 -0.021 -0.156  0.909 -0.385
      -0.109 -0.115 -0.178 -0.408 -0.881
      -0.196  0.962 -0.182 -0.033 -0.049
     occupation matrix ns (before diag.):
       0.994 -0.002 -0.000  0.000  0.000
      -0.002  0.995  0.000  0.001 -0.000
      -0.000  0.000  0.998 -0.000  0.000
       0.000  0.001 -0.000  0.998  0.000
       0.000 -0.000  0.000  0.000  0.993
     SPIN  2
     eigenvalues:
       0.024  0.029  0.085  0.100  0.985
     eigenvectors (columns):
       0.027 -0.143 -0.869 -0.471  0.034
       0.091  0.390 -0.082 -0.027 -0.912
       0.956  0.121 -0.092  0.199  0.150
      -0.160  0.901 -0.083 -0.102  0.380
      -0.225  0.013 -0.472  0.853  0.001
     occupation matrix ns (before diag.):
       0.089 -0.025  0.003  0.020 -0.006
      -0.025  0.825 -0.131 -0.331  0.000
       0.003 -0.131  0.049  0.054  0.016
       0.020 -0.331  0.054  0.168 -0.004
      -0.006  0.000  0.016 -0.004  0.093
     ------------------------ ATOM   12 ------------------------
     Tr[ns( 12)] (up, down, total) =   4.98134  1.23429  6.21563
     Atomic magnetic moment for atom  12 =   3.74705
     SPIN  1
     eigenvalues:
       0.994  0.995  0.996  0.998  0.999
     eigenvectors (columns):
       0.835 -0.368 -0.264  0.270 -0.159
      -0.274  0.025  0.075  0.958  0.004
      -0.135 -0.810  0.546 -0.061  0.154
      -0.458 -0.446 -0.682 -0.064 -0.350
      -0.006 -0.098 -0.401  0.029  0.910
     occupation matrix ns (before diag.):
       0.995  0.001 -0.000  0.000 -0.000
       0.001  0.998 -0.000 -0.000  0.000
      -0.000 -0.000  0.995 -0.001  0.000
       0.000 -0.000 -0.001  0.996 -0.001
      -0.000  0.000  0.000 -0.001  0.998
     SPIN  2
     eigenvalues:
       0.028  0.032  0.091  0.099  0.985
     eigenvectors (columns):
       0.139 -0.275 -0.020 -0.573  0.759
      -0.390 -0.892 -0.083  0.067 -0.204
      -0.059 -0.052  0.975 -0.172 -0.113
       0.364 -0.220  0.197  0.767  0.438
      -0.832  0.279  0.052  0.221  0.422
     occupation matrix ns (before diag.):
       0.603 -0.149 -0.076  0.287  0.297
      -0.149  0.072  0.016 -0.082 -0.083
      -0.076  0.016  0.102 -0.044 -0.045
       0.287 -0.082 -0.044  0.256  0.189
       0.297 -0.083 -0.045  0.189  0.202
     ------------------------ ATOM   13 ------------------------
     Tr[ns( 13)] (up, down, total) =   4.97843  1.21802  6.19645
     Atomic magnetic moment for atom  13 =   3.76040
     SPIN  1
     eigenvalues:
       0.993  0.993  0.996  0.997  0.998
     eigenvectors (columns):
      -0.394  0.397  0.145 -0.794 -0.189
       0.788 -0.189  0.432 -0.382 -0.101
       0.189  0.206 -0.317  0.164 -0.891
      -0.049  0.549  0.707  0.440 -0.054
       0.431  0.680 -0.439 -0.048  0.396
     occupation matrix ns (before diag.):
       0.996  0.002  0.000 -0.001 -0.000
       0.002  0.994 -0.000  0.000 -0.001
       0.000 -0.000  0.998 -0.000 -0.001
      -0.001  0.000 -0.000  0.996 -0.001
      -0.000 -0.001 -0.001 -0.001  0.995
     SPIN  2
     eigenvalues:
       0.027  0.034  0.073  0.096  0.989
     eigenvectors (columns):
       0.719 -0.131  0.098  0.675 -0.000
       0.608 -0.101  0.109 -0.684 -0.375
       0.120  0.877  0.446 -0.023  0.128
      -0.273  0.068  0.211  0.273 -0.896
      -0.155 -0.445  0.857 -0.046  0.202
     occupation matrix ns (before diag.):
       0.059 -0.031  0.000  0.014  0.002
      -0.031  0.195 -0.043  0.311 -0.066
       0.000 -0.043  0.057 -0.106  0.040
       0.014  0.311 -0.106  0.806 -0.166
       0.002 -0.066  0.040 -0.166  0.101
     ------------------------ ATOM   14 ------------------------
     Tr[ns( 14)] (up, down, total) =   4.97843  1.21802  6.19645
     Atomic magnetic moment for atom  14 =   3.76040
     SPIN  1
     eigenvalues:
       0.993  0.993  0.996  0.997  0.998
     eigenvectors (columns):
      -0.394 -0.397  0.145 -0.794  0.189
      -0.788 -0.189 -0.432  0.382 -0.101
       0.189 -0.206 -0.317  0.164  0.891
      -0.049 -0.549  0.707  0.440  0.054
      -0.431  0.680  0.439  0.048  0.396
     occupation matrix ns (before diag.):
       0.996 -0.002  0.000 -0.001  0.000
      -0.002  0.994  0.000 -0.000 -0.001
       0.000  0.000  0.998 -0.000  0.001
      -0.001 -0.000 -0.000  0.996  0.001
       0.000 -0.001  0.001  0.001  0.995
     SPIN  2
     eigenvalues:
       0.027  0.034  0.073  0.096  0.989
     eigenvectors (columns):
       0.719  0.131  0.098  0.675  0.000
      -0.608 -0.101 -0.109  0.684 -0.375
       0.120 -0.877  0.446 -0.023 -0.128
      -0.273 -0.068  0.211  0.273  0.896
       0.155 -0.445 -0.857  0.046  0.202
     occupation matrix ns (before diag.):
       0.059  0.031  0.000  0.014 -0.002
       0.031  0.195  0.043 -0.311 -0.066
       0.000  0.043  0.057 -0.106 -0.040
       0.014 -0.311 -0.106  0.806  0.166
      -0.002 -0.066 -0.040  0.166  0.101
     ------------------------ ATOM   15 ------------------------
     Tr[ns( 15)] (up, down, total) =   4.97843  1.21802  6.19645
     Atomic magnetic moment for atom  15 =   3.76040
     SPIN  1
     eigenvalues:
       0.993  0.993  0.996  0.997  0.998
     eigenvectors (columns):
      -0.394 -0.397  0.145 -0.794  0.189
      -0.788 -0.189 -0.432  0.382 -0.101
       0.189 -0.206 -0.317  0.164  0.891
      -0.049 -0.549  0.707  0.440  0.054
      -0.431  0.680  0.439  0.048  0.396
     occupation matrix ns (before diag.):
       0.996 -0.002  0.000 -0.001  0.000
      -0.002  0.994  0.000 -0.000 -0.001
       0.000  0.000  0.998 -0.000  0.001
      -0.001 -0.000 -0.000  0.996  0.001
       0.000 -0.001  0.001  0.001  0.995
     SPIN  2
     eigenvalues:
       0.027  0.034  0.073  0.096  0.989
     eigenvectors (columns):
       0.719  0.131  0.098  0.675  0.000
      -0.608 -0.101 -0.109  0.684 -0.375
       0.120 -0.877  0.446 -0.023 -0.128
      -0.273 -0.068  0.211  0.273  0.896
       0.155 -0.445 -0.857  0.046  0.202
     occupation matrix ns (before diag.):
       0.059  0.031  0.000  0.014 -0.002
       0.031  0.195  0.043 -0.311 -0.066
       0.000  0.043  0.057 -0.106 -0.040
       0.014 -0.311 -0.106  0.806  0.166
      -0.002 -0.066 -0.040  0.166  0.101
     ------------------------ ATOM   16 ------------------------
     Tr[ns( 16)] (up, down, total) =   4.97843  1.21802  6.19645
     Atomic magnetic moment for atom  16 =   3.76040
     SPIN  1
     eigenvalues:
       0.993  0.993  0.996  0.997  0.998
     eigenvectors (columns):
      -0.394  0.397  0.145 -0.794 -0.189
       0.788 -0.189  0.432 -0.382 -0.101
       0.189  0.206 -0.317  0.164 -0.891
      -0.049  0.549  0.707  0.440 -0.054
       0.431  0.680 -0.439 -0.048  0.396
     occupation matrix ns (before diag.):
       0.996  0.002  0.000 -0.001 -0.000
       0.002  0.994 -0.000  0.000 -0.001
       0.000 -0.000  0.998 -0.000 -0.001
      -0.001  0.000 -0.000  0.996 -0.001
      -0.000 -0.001 -0.001 -0.001  0.995
     SPIN  2
     eigenvalues:
       0.027  0.034  0.073  0.096  0.989
     eigenvectors (columns):
       0.719 -0.131  0.098  0.675 -0.000
       0.608 -0.101  0.109 -0.684 -0.375
       0.120  0.877  0.446 -0.023  0.128
      -0.273  0.068  0.211  0.273 -0.896
      -0.155 -0.445  0.857 -0.046  0.202
     occupation matrix ns (before diag.):
       0.059 -0.031  0.000  0.014  0.002
      -0.031  0.195 -0.043  0.311 -0.066
       0.000 -0.043  0.057 -0.106  0.040
       0.014  0.311 -0.106  0.806 -0.166
       0.002 -0.066  0.040 -0.166  0.101
     ------------------------ ATOM   17 ------------------------
     Tr[ns( 17)] (up, down, total) =   4.98134  1.23429  6.21563
     Atomic magnetic moment for atom  17 =   3.74705
     SPIN  1
     eigenvalues:
       0.994  0.995  0.996  0.998  0.999
     eigenvectors (columns):
       0.835 -0.368 -0.264  0.270 -0.159
      -0.274  0.025  0.075  0.958  0.004
      -0.135 -0.810  0.546 -0.061  0.154
      -0.458 -0.446 -0.682 -0.064 -0.350
      -0.006 -0.098 -0.401  0.029  0.910
     occupation matrix ns (before diag.):
       0.995  0.001 -0.000  0.000 -0.000
       0.001  0.998 -0.000 -0.000  0.000
      -0.000 -0.000  0.995 -0.001  0.000
       0.000 -0.000 -0.001  0.996 -0.001
      -0.000  0.000  0.000 -0.001  0.998
     SPIN  2
     eigenvalues:
       0.028  0.032  0.091  0.099  0.985
     eigenvectors (columns):
       0.139 -0.275 -0.020 -0.573  0.759
      -0.390 -0.892 -0.083  0.067 -0.204
      -0.059 -0.052  0.975 -0.172 -0.113
       0.364 -0.220  0.197  0.767  0.438
      -0.832  0.279  0.052  0.221  0.422
     occupation matrix ns (before diag.):
       0.603 -0.149 -0.076  0.287  0.297
      -0.149  0.072  0.016 -0.082 -0.083
      -0.076  0.016  0.102 -0.044 -0.045
       0.287 -0.082 -0.044  0.256  0.189
       0.297 -0.083 -0.045  0.189  0.202
     ------------------------ ATOM   18 ------------------------
     Tr[ns( 18)] (up, down, total) =   4.98134  1.23429  6.21563
     Atomic magnetic moment for atom  18 =   3.74705
     SPIN  1
     eigenvalues:
       0.994  0.995  0.996  0.998  0.999
     eigenvectors (columns):
       0.835  0.368 -0.264  0.270  0.159
       0.274  0.025 -0.075 -0.958  0.004
      -0.135  0.810  0.546 -0.061 -0.154
      -0.458  0.446 -0.682 -0.064  0.350
       0.006 -0.098  0.401 -0.029  0.910
     occupation matrix ns (before diag.):
       0.995 -0.001 -0.000  0.000  0.000
      -0.001  0.998  0.000  0.000  0.000
      -0.000  0.000  0.995 -0.001 -0.000
       0.000  0.000 -0.001  0.996  0.001
       0.000  0.000 -0.000  0.001  0.998
     SPIN  2
     eigenvalues:
       0.028  0.032  0.091  0.099  0.985
     eigenvectors (columns):
       0.139 -0.275 -0.020  0.573 -0.759
       0.390  0.892  0.083  0.067 -0.204
      -0.059 -0.052  0.975  0.172  0.113
       0.364 -0.220  0.197 -0.767 -0.438
       0.832 -0.279 -0.052  0.221  0.422
     occupation matrix ns (before diag.):
       0.603  0.149 -0.076  0.287 -0.297
       0.149  0.072 -0.016  0.082 -0.083
      -0.076 -0.016  0.102 -0.044  0.045
       0.287  0.082 -0.044  0.256 -0.189
      -0.297 -0.083  0.045 -0.189  0.202

     Number of occupied Hubbard levels =   62.0539

     Threshold (ethr) on eigenvalues was too large:
     Diagonalizing with lowered threshold

     Davidson diagonalization with overlap

---- Real-time Memory Report at c_bands before calling an iterative solver
         45564 MiB given to the printing process from OS
             0 MiB allocation reported by mallinfo(arena+hblkhd)
        387611 MiB available memory on the node where the printing process lives
     GPU memory used/free/total (MiB): 24496 / 40448 / 64944
------------------
     ethr =  2.00E-12,  avg # of iterations =  1.6

     =================== HUBBARD OCCUPATIONS ===================
     ------------------------ ATOM    9 ------------------------
     Tr[ns(  9)] (up, down, total) =   4.97912  1.22368  6.20280
     Atomic magnetic moment for atom   9 =   3.75543
     SPIN  1
     eigenvalues:
       0.993  0.993  0.996  0.998  0.998
     eigenvectors (columns):
       0.836 -0.067 -0.541 -0.064 -0.027
      -0.501  0.239 -0.786 -0.036 -0.269
      -0.017  0.021 -0.156  0.909  0.385
      -0.109  0.115 -0.178 -0.408  0.881
       0.196  0.962  0.182  0.033 -0.049
     occupation matrix ns (before diag.):
       0.994  0.002 -0.000  0.000 -0.000
       0.002  0.995 -0.000 -0.001 -0.000
      -0.000 -0.000  0.998 -0.000 -0.000
       0.000 -0.001 -0.000  0.998 -0.000
      -0.000 -0.000 -0.000 -0.000  0.993
     SPIN  2
     eigenvalues:
       0.024  0.029  0.085  0.100  0.985
     eigenvectors (columns):
      -0.027 -0.143 -0.869 -0.471 -0.034
       0.091 -0.390  0.082  0.027 -0.912
      -0.956  0.121 -0.092  0.199 -0.150
       0.160  0.901 -0.083 -0.102 -0.380
      -0.225 -0.013  0.472 -0.853  0.001
     occupation matrix ns (before diag.):
       0.089  0.025  0.003  0.020  0.006
       0.025  0.825  0.131  0.331  0.000
       0.003  0.131  0.049  0.054 -0.016
       0.020  0.331  0.054  0.168  0.004
       0.006  0.000 -0.016  0.004  0.093
     ------------------------ ATOM   10 ------------------------
     Tr[ns( 10)] (up, down, total) =   4.98134  1.23429  6.21563
     Atomic magnetic moment for atom  10 =   3.74705
     SPIN  1
     eigenvalues:
       0.994  0.995  0.996  0.998  0.999
     eigenvectors (columns):
       0.835  0.368 -0.264  0.270  0.159
       0.274  0.025 -0.075 -0.958  0.004
      -0.135  0.810  0.546 -0.061 -0.154
      -0.458  0.446 -0.682 -0.064  0.350
       0.006 -0.098  0.401 -0.029  0.910
     occupation matrix ns (before diag.):
       0.995 -0.001 -0.000  0.000  0.000
      -0.001  0.998  0.000  0.000  0.000
      -0.000  0.000  0.995 -0.001 -0.000
       0.000  0.000 -0.001  0.996  0.001
       0.000  0.000 -0.000  0.001  0.998
     SPIN  2
     eigenvalues:
       0.028  0.032  0.091  0.099  0.985
     eigenvectors (columns):
       0.139 -0.275 -0.020  0.573 -0.759
       0.390  0.892  0.083  0.067 -0.204
      -0.059 -0.052  0.975  0.172  0.113
       0.364 -0.220  0.197 -0.767 -0.438
       0.832 -0.279 -0.052  0.221  0.422
     occupation matrix ns (before diag.):
       0.603  0.149 -0.076  0.287 -0.297
       0.149  0.072 -0.016  0.082 -0.083
      -0.076 -0.016  0.102 -0.044  0.045
       0.287  0.082 -0.044  0.256 -0.189
      -0.297 -0.083  0.045 -0.189  0.202
     ------------------------ ATOM   11 ------------------------
     Tr[ns( 11)] (up, down, total) =   4.97912  1.22368  6.20280
     Atomic magnetic moment for atom  11 =   3.75543
     SPIN  1
     eigenvalues:
       0.993  0.993  0.996  0.998  0.998
     eigenvectors (columns):
       0.836  0.067 -0.541 -0.064  0.027
       0.501  0.239  0.786  0.036 -0.269
      -0.017 -0.021 -0.156  0.909 -0.385
      -0.109 -0.115 -0.178 -0.408 -0.881
      -0.196  0.962 -0.182 -0.033 -0.049
     occupation matrix ns (before diag.):
       0.994 -0.002 -0.000  0.000  0.000
      -0.002  0.995  0.000  0.001 -0.000
      -0.000  0.000  0.998 -0.000  0.000
       0.000  0.001 -0.000  0.998  0.000
       0.000 -0.000  0.000  0.000  0.993
     SPIN  2
     eigenvalues:
       0.024  0.029  0.085  0.100  0.985
     eigenvectors (columns):
       0.027 -0.143 -0.869 -0.471  0.034
       0.091  0.390 -0.082 -0.027 -0.912
       0.956  0.121 -0.092  0.199  0.150
      -0.160  0.901 -0.083 -0.102  0.380
      -0.225  0.013 -0.472  0.853  0.001
     occupation matrix ns (before diag.):
       0.089 -0.025  0.003  0.020 -0.006
      -0.025  0.825 -0.131 -0.331  0.000
       0.003 -0.131  0.049  0.054  0.016
       0.020 -0.331  0.054  0.168 -0.004
      -0.006  0.000  0.016 -0.004  0.093
     ------------------------ ATOM   12 ------------------------
     Tr[ns( 12)] (up, down, total) =   4.98134  1.23429  6.21563
     Atomic magnetic moment for atom  12 =   3.74705
     SPIN  1
     eigenvalues:
       0.994  0.995  0.996  0.998  0.999
     eigenvectors (columns):
       0.835 -0.368 -0.264  0.270 -0.159
      -0.274  0.025  0.075  0.958  0.004
      -0.135 -0.810  0.546 -0.061  0.154
      -0.458 -0.446 -0.682 -0.064 -0.350
      -0.006 -0.098 -0.401  0.029  0.910
     occupation matrix ns (before diag.):
       0.995  0.001 -0.000  0.000 -0.000
       0.001  0.998 -0.000 -0.000  0.000
      -0.000 -0.000  0.995 -0.001  0.000
       0.000 -0.000 -0.001  0.996 -0.001
      -0.000  0.000  0.000 -0.001  0.998
     SPIN  2
     eigenvalues:
       0.028  0.032  0.091  0.099  0.985
     eigenvectors (columns):
       0.139 -0.275 -0.020 -0.573  0.759
      -0.390 -0.892 -0.083  0.067 -0.204
      -0.059 -0.052  0.975 -0.172 -0.113
       0.364 -0.220  0.197  0.767  0.438
      -0.832  0.279  0.052  0.221  0.422
     occupation matrix ns (before diag.):
       0.603 -0.149 -0.076  0.287  0.297
      -0.149  0.072  0.016 -0.082 -0.083
      -0.076  0.016  0.102 -0.044 -0.045
       0.287 -0.082 -0.044  0.256  0.189
       0.297 -0.083 -0.045  0.189  0.202
     ------------------------ ATOM   13 ------------------------
     Tr[ns( 13)] (up, down, total) =   4.97843  1.21802  6.19645
     Atomic magnetic moment for atom  13 =   3.76040
     SPIN  1
     eigenvalues:
       0.993  0.993  0.996  0.997  0.998
     eigenvectors (columns):
      -0.394  0.397  0.145 -0.794 -0.189
       0.788 -0.189  0.432 -0.382 -0.101
       0.189  0.206 -0.317  0.164 -0.891
      -0.049  0.549  0.707  0.440 -0.054
       0.431  0.680 -0.439 -0.048  0.396
     occupation matrix ns (before diag.):
       0.996  0.002  0.000 -0.001 -0.000
       0.002  0.994 -0.000  0.000 -0.001
       0.000 -0.000  0.998 -0.000 -0.001
      -0.001  0.000 -0.000  0.996 -0.001
      -0.000 -0.001 -0.001 -0.001  0.995
     SPIN  2
     eigenvalues:
       0.027  0.034  0.073  0.096  0.989
     eigenvectors (columns):
       0.719 -0.131  0.098  0.675 -0.000
       0.608 -0.101  0.109 -0.684 -0.375
       0.120  0.877  0.446 -0.023  0.128
      -0.273  0.068  0.211  0.273 -0.896
      -0.155 -0.445  0.857 -0.046  0.202
     occupation matrix ns (before diag.):
       0.059 -0.031  0.000  0.014  0.002
      -0.031  0.195 -0.043  0.311 -0.066
       0.000 -0.043  0.057 -0.106  0.040
       0.014  0.311 -0.106  0.806 -0.166
       0.002 -0.066  0.040 -0.166  0.101
     ------------------------ ATOM   14 ------------------------
     Tr[ns( 14)] (up, down, total) =   4.97843  1.21802  6.19645
     Atomic magnetic moment for atom  14 =   3.76040
     SPIN  1
     eigenvalues:
       0.993  0.993  0.996  0.997  0.998
     eigenvectors (columns):
      -0.394 -0.397  0.145 -0.794  0.189
      -0.788 -0.189 -0.432  0.382 -0.101
       0.189 -0.206 -0.317  0.164  0.891
      -0.049 -0.549  0.707  0.440  0.054
      -0.431  0.680  0.439  0.048  0.396
     occupation matrix ns (before diag.):
       0.996 -0.002  0.000 -0.001  0.000
      -0.002  0.994  0.000 -0.000 -0.001
       0.000  0.000  0.998 -0.000  0.001
      -0.001 -0.000 -0.000  0.996  0.001
       0.000 -0.001  0.001  0.001  0.995
     SPIN  2
     eigenvalues:
       0.027  0.034  0.073  0.096  0.989
     eigenvectors (columns):
       0.719  0.131  0.098  0.675  0.000
      -0.608 -0.101 -0.109  0.684 -0.375
       0.120 -0.877  0.446 -0.023 -0.128
      -0.273 -0.068  0.211  0.273  0.896
       0.155 -0.445 -0.857  0.046  0.202
     occupation matrix ns (before diag.):
       0.059  0.031  0.000  0.014 -0.002
       0.031  0.195  0.043 -0.311 -0.066
       0.000  0.043  0.057 -0.106 -0.040
       0.014 -0.311 -0.106  0.806  0.166
      -0.002 -0.066 -0.040  0.166  0.101
     ------------------------ ATOM   15 ------------------------
     Tr[ns( 15)] (up, down, total) =   4.97843  1.21802  6.19645
     Atomic magnetic moment for atom  15 =   3.76040
     SPIN  1
     eigenvalues:
       0.993  0.993  0.996  0.997  0.998
     eigenvectors (columns):
      -0.394 -0.397  0.145 -0.794  0.189
      -0.788 -0.189 -0.432  0.382 -0.101
       0.189 -0.206 -0.317  0.164  0.891
      -0.049 -0.549  0.707  0.440  0.054
      -0.431  0.680  0.439  0.048  0.396
     occupation matrix ns (before diag.):
       0.996 -0.002  0.000 -0.001  0.000
      -0.002  0.994  0.000 -0.000 -0.001
       0.000  0.000  0.998 -0.000  0.001
      -0.001 -0.000 -0.000  0.996  0.001
       0.000 -0.001  0.001  0.001  0.995
     SPIN  2
     eigenvalues:
       0.027  0.034  0.073  0.096  0.989
     eigenvectors (columns):
       0.719  0.131  0.098  0.675  0.000
      -0.608 -0.101 -0.109  0.684 -0.375
       0.120 -0.877  0.446 -0.023 -0.128
      -0.273 -0.068  0.211  0.273  0.896
       0.155 -0.445 -0.857  0.046  0.202
     occupation matrix ns (before diag.):
       0.059  0.031  0.000  0.014 -0.002
       0.031  0.195  0.043 -0.311 -0.066
       0.000  0.043  0.057 -0.106 -0.040
       0.014 -0.311 -0.106  0.806  0.166
      -0.002 -0.066 -0.040  0.166  0.101
     ------------------------ ATOM   16 ------------------------
     Tr[ns( 16)] (up, down, total) =   4.97843  1.21802  6.19645
     Atomic magnetic moment for atom  16 =   3.76040
     SPIN  1
     eigenvalues:
       0.993  0.993  0.996  0.997  0.998
     eigenvectors (columns):
      -0.394  0.397  0.145 -0.794 -0.189
       0.788 -0.189  0.432 -0.382 -0.101
       0.189  0.206 -0.317  0.164 -0.891
      -0.049  0.549  0.707  0.440 -0.054
       0.431  0.680 -0.439 -0.048  0.396
     occupation matrix ns (before diag.):
       0.996  0.002  0.000 -0.001 -0.000
       0.002  0.994 -0.000  0.000 -0.001
       0.000 -0.000  0.998 -0.000 -0.001
      -0.001  0.000 -0.000  0.996 -0.001
      -0.000 -0.001 -0.001 -0.001  0.995
     SPIN  2
     eigenvalues:
       0.027  0.034  0.073  0.096  0.989
     eigenvectors (columns):
       0.719 -0.131  0.098  0.675 -0.000
       0.608 -0.101  0.109 -0.684 -0.375
       0.120  0.877  0.446 -0.023  0.128
      -0.273  0.068  0.211  0.273 -0.896
      -0.155 -0.445  0.857 -0.046  0.202
     occupation matrix ns (before diag.):
       0.059 -0.031  0.000  0.014  0.002
      -0.031  0.195 -0.043  0.311 -0.066
       0.000 -0.043  0.057 -0.106  0.040
       0.014  0.311 -0.106  0.806 -0.166
       0.002 -0.066  0.040 -0.166  0.101
     ------------------------ ATOM   17 ------------------------
     Tr[ns( 17)] (up, down, total) =   4.98134  1.23429  6.21563
     Atomic magnetic moment for atom  17 =   3.74705
     SPIN  1
     eigenvalues:
       0.994  0.995  0.996  0.998  0.999
     eigenvectors (columns):
       0.835 -0.368 -0.264  0.270 -0.159
      -0.274  0.025  0.075  0.958  0.004
      -0.135 -0.810  0.546 -0.061  0.154
      -0.458 -0.446 -0.682 -0.064 -0.350
      -0.006 -0.098 -0.401  0.029  0.910
     occupation matrix ns (before diag.):
       0.995  0.001 -0.000  0.000 -0.000
       0.001  0.998 -0.000 -0.000  0.000
      -0.000 -0.000  0.995 -0.001  0.000
       0.000 -0.000 -0.001  0.996 -0.001
      -0.000  0.000  0.000 -0.001  0.998
     SPIN  2
     eigenvalues:
       0.028  0.032  0.091  0.099  0.985
     eigenvectors (columns):
       0.139 -0.275 -0.020 -0.573  0.759
      -0.390 -0.892 -0.083  0.067 -0.204
      -0.059 -0.052  0.975 -0.172 -0.113
       0.364 -0.220  0.197  0.767  0.438
      -0.832  0.279  0.052  0.221  0.422
     occupation matrix ns (before diag.):
       0.603 -0.149 -0.076  0.287  0.297
      -0.149  0.072  0.016 -0.082 -0.083
      -0.076  0.016  0.102 -0.044 -0.045
       0.287 -0.082 -0.044  0.256  0.189
       0.297 -0.083 -0.045  0.189  0.202
     ------------------------ ATOM   18 ------------------------
     Tr[ns( 18)] (up, down, total) =   4.98134  1.23429  6.21563
     Atomic magnetic moment for atom  18 =   3.74705
     SPIN  1
     eigenvalues:
       0.994  0.995  0.996  0.998  0.999
     eigenvectors (columns):
       0.835  0.368 -0.264  0.270  0.159
       0.274  0.025 -0.075 -0.958  0.004
      -0.135  0.810  0.546 -0.061 -0.154
      -0.458  0.446 -0.682 -0.064  0.350
       0.006 -0.098  0.401 -0.029  0.910
     occupation matrix ns (before diag.):
       0.995 -0.001 -0.000  0.000  0.000
      -0.001  0.998  0.000  0.000  0.000
      -0.000  0.000  0.995 -0.001 -0.000
       0.000  0.000 -0.001  0.996  0.001
       0.000  0.000 -0.000  0.001  0.998
     SPIN  2
     eigenvalues:
       0.028  0.032  0.091  0.099  0.985
     eigenvectors (columns):
       0.139 -0.275 -0.020  0.573 -0.759
       0.390  0.892  0.083  0.067 -0.204
      -0.059 -0.052  0.975  0.172  0.113
       0.364 -0.220  0.197 -0.767 -0.438
       0.832 -0.279 -0.052  0.221  0.422
     occupation matrix ns (before diag.):
       0.603  0.149 -0.076  0.287 -0.297
       0.149  0.072 -0.016  0.082 -0.083
      -0.076 -0.016  0.102 -0.044  0.045
       0.287  0.082 -0.044  0.256 -0.189
      -0.297 -0.083  0.045 -0.189  0.202

     Number of occupied Hubbard levels =   62.0539

     negative rho (up, down):  0.000E+00 1.631E-03

     HUBBARD ENERGY =    0.4207  (Ry)
 
     Magnetic moment per site  (integrated on atomic sphere of radius R)
     atom   1 (R=0.142)  charge=  7.9156  magn=  0.0003
     atom   2 (R=0.142)  charge=  7.9156  magn=  0.0003
     atom   3 (R=0.142)  charge=  7.9196  magn= -0.0001
     atom   4 (R=0.142)  charge=  7.9196  magn= -0.0001
     atom   5 (R=0.142)  charge=  7.9196  magn= -0.0001
     atom   6 (R=0.142)  charge=  7.9196  magn= -0.0001
     atom   7 (R=0.142)  charge=  7.9156  magn=  0.0003
     atom   8 (R=0.142)  charge=  7.9156  magn=  0.0003
     atom   9 (R=0.126)  charge= 13.2325  magn=  3.4190
     atom  10 (R=0.126)  charge= 13.2390  magn=  3.4056
     atom  11 (R=0.126)  charge= 13.2325  magn=  3.4190
     atom  12 (R=0.126)  charge= 13.2390  magn=  3.4056
     atom  13 (R=0.126)  charge= 13.2259  magn=  3.4135
     atom  14 (R=0.126)  charge= 13.2259  magn=  3.4135
     atom  15 (R=0.126)  charge= 13.2259  magn=  3.4135
     atom  16 (R=0.126)  charge= 13.2259  magn=  3.4135
     atom  17 (R=0.126)  charge= 13.2390  magn=  3.4056
     atom  18 (R=0.126)  charge= 13.2390  magn=  3.4056
     atom  19 (R=0.094)  charge=  0.8120  magn=  0.0064
     atom  20 (R=0.094)  charge=  0.8120  magn=  0.0064
     atom  21 (R=0.094)  charge=  0.8167  magn=  0.0044
     atom  22 (R=0.094)  charge=  0.8167  magn=  0.0044
     atom  23 (R=0.094)  charge=  0.8160  magn=  0.0048
     atom  24 (R=0.094)  charge=  0.8160  magn=  0.0048
     atom  25 (R=0.094)  charge=  0.8160  magn=  0.0048
     atom  26 (R=0.094)  charge=  0.8160  magn=  0.0048
     atom  27 (R=0.094)  charge=  0.8167  magn=  0.0044
     atom  28 (R=0.094)  charge=  0.8167  magn=  0.0044
     atom  29 (R=0.094)  charge=  0.8120  magn=  0.0064
     atom  30 (R=0.094)  charge=  0.8120  magn=  0.0064
     atom  31 (R=0.094)  charge=  4.1695  magn=  0.0490
     atom  32 (R=0.094)  charge=  4.1729  magn=  0.0478
     atom  33 (R=0.094)  charge=  4.1695  magn=  0.0490
     atom  34 (R=0.094)  charge=  4.1729  magn=  0.0478
     atom  35 (R=0.094)  charge=  4.1772  magn=  0.0298
     atom  36 (R=0.094)  charge=  4.1740  magn=  0.0377
     atom  37 (R=0.094)  charge=  4.1864  magn=  0.0196
     atom  38 (R=0.094)  charge=  4.1756  magn=  0.0323
     atom  39 (R=0.094)  charge=  4.1772  magn=  0.0298
     atom  40 (R=0.094)  charge=  4.1740  magn=  0.0377
     atom  41 (R=0.094)  charge=  4.1817  magn=  0.0307
     atom  42 (R=0.094)  charge=  4.1864  magn=  0.0196
     atom  43 (R=0.094)  charge=  4.1756  magn=  0.0323
     atom  44 (R=0.094)  charge=  4.1796  magn=  0.0222
     atom  45 (R=0.094)  charge=  4.1817  magn=  0.0307
     atom  46 (R=0.094)  charge=  4.1823  magn=  0.0220
     atom  47 (R=0.094)  charge=  4.2153  magn=  0.0043
     atom  48 (R=0.094)  charge=  4.1913  magn=  0.0268
     atom  49 (R=0.094)  charge=  4.1796  magn=  0.0222
     atom  50 (R=0.094)  charge=  4.1823  magn=  0.0220
     atom  51 (R=0.094)  charge=  4.2153  magn=  0.0043
     atom  52 (R=0.094)  charge=  4.1913  magn=  0.0268
     atom  53 (R=0.094)  charge=  4.1913  magn=  0.0268
     atom  54 (R=0.094)  charge=  4.2153  magn=  0.0043
     atom  55 (R=0.094)  charge=  4.1823  magn=  0.0220
     atom  56 (R=0.094)  charge=  4.1796  magn=  0.0222
     atom  57 (R=0.094)  charge=  4.1913  magn=  0.0268
     atom  58 (R=0.094)  charge=  4.2153  magn=  0.0043
     atom  59 (R=0.094)  charge=  4.1823  magn=  0.0220
     atom  60 (R=0.094)  charge=  4.1817  magn=  0.0307
     atom  61 (R=0.094)  charge=  4.1796  magn=  0.0222
     atom  62 (R=0.094)  charge=  4.1756  magn=  0.0323
     atom  63 (R=0.094)  charge=  4.1864  magn=  0.0196
     atom  64 (R=0.094)  charge=  4.1817  magn=  0.0307
     atom  65 (R=0.094)  charge=  4.1740  magn=  0.0377
     atom  66 (R=0.094)  charge=  4.1772  magn=  0.0298
     atom  67 (R=0.094)  charge=  4.1756  magn=  0.0323
     atom  68 (R=0.094)  charge=  4.1864  magn=  0.0196
     atom  69 (R=0.094)  charge=  4.1740  magn=  0.0377
     atom  70 (R=0.094)  charge=  4.1772  magn=  0.0298
     atom  71 (R=0.094)  charge=  4.1729  magn=  0.0478
     atom  72 (R=0.094)  charge=  4.1695  magn=  0.0490
     atom  73 (R=0.094)  charge=  4.1729  magn=  0.0478
     atom  74 (R=0.094)  charge=  4.1695  magn=  0.0490

     total cpu time spent up to now is      250.7 secs

     End of self-consistent calculation

 ------ SPIN UP ------------


          k = 0.0000 0.0000 0.0000 ( 87569 PWs)   bands (ev):

   -82.2634 -82.2633 -82.2633 -82.2633 -82.2537 -82.2537 -82.2537 -82.2537
   -81.8769 -81.8769 -49.5107 -49.5106 -49.5106 -49.5106 -49.4855 -49.4854
   -49.4854 -49.4854 -48.9036 -48.9036 -48.1497 -48.1497 -48.0867 -48.0867
   -48.0867 -48.0867 -48.0685 -48.0684 -48.0684 -48.0684 -47.7441 -47.7440
   -47.7440 -47.7440 -47.7103 -47.7103 -47.7103 -47.7103 -47.1093 -47.1093
   -43.9960 -43.9960 -43.9960 -43.9960 -43.9343 -43.9343 -43.9343 -43.9342
   -16.3227 -16.3150 -16.2774 -16.2478 -16.1418 -16.1394 -16.1357 -16.1352
   -16.1125 -16.1094 -16.1045 -16.1030 -16.0930 -16.0849 -16.0809 -16.0766
   -16.0544 -16.0533 -16.0530 -16.0490 -16.0476 -16.0473 -16.0415 -16.0393
   -16.0255 -16.0134 -15.9773 -15.9560 -15.4208 -15.3241 -15.2466 -15.1919
   -14.8430 -14.8272 -14.8197 -14.8153 -13.6211 -13.6159 -13.6115 -13.5696
   -13.2546 -13.2030 -13.0572 -13.0567 -13.0132 -13.0118 -12.9647 -12.9188
   -12.9053 -12.8601 -12.8433 -12.8243 -12.8165 -12.7931 -12.7885 -12.7866
   -12.7596 -12.7573 -12.7200 -12.7016 -12.6698 -12.6248 -12.6032 -12.5852
   -12.5796 -12.5769 -12.5659 -12.5303  -4.6522  -4.6474  -4.6271  -4.5891
    -3.3900  -3.0940  -3.0893  -3.0732  -2.7465  -2.5535  -2.3920  -2.2902
    -1.7365  -1.6722  -1.6269  -1.5231  -1.4761  -1.4551  -1.4141  -1.3738
    -1.3209  -1.2755  -1.2181  -1.1411  -1.0510  -1.0332  -1.0073  -0.8928
    -0.8750  -0.8268  -0.7865  -0.7408  -0.6995  -0.6403  -0.6294  -0.5094
    -0.5042  -0.4054  -0.3993  -0.3300  -0.2842  -0.2737  -0.1845  -0.1427
     0.0570   0.0875   0.1552   0.2291   0.2323   0.3556   0.4199   0.4728
     0.4857   0.5035   0.5497   0.6304   0.6464   0.7037   0.7333   0.7451
     0.7985   0.8363   0.8394   0.8603   0.9412   1.0037   1.0124   1.0273
     1.0288   1.0742   1.1631   1.1810   1.1821   1.2021   1.2649   1.3364
     1.3735   1.3867   1.3904   1.4348   1.4700   1.5188   1.5788   1.5892
     1.6456   1.7096   1.7130   1.8339   1.8711   1.9067   1.9683   2.0120
     2.0253   2.0664   2.0962   2.1936   2.1957   2.2023   2.2210   2.2829
     2.2882   2.3420   2.3947   2.4249   2.4620   2.4936   2.5476   2.5622
     2.6087   2.6631   2.6671   2.7022   2.7284   2.8043   2.8183   2.8240
     2.8426   2.8747   2.8960   2.9344   2.9580   2.9882   2.9886   3.0707
     3.0843   3.1368   3.1547   3.1709   3.1794   3.1888   3.2239   3.2265
     3.2981   3.3152   3.3891   3.3953   3.3953   3.4122   3.5025   3.5138
     3.5242   3.5705   3.6349   3.6872   3.7230   3.7441   3.7627   3.7724
     3.7993   3.8411   3.8459   3.8822   3.9327   4.0349   4.0541   4.0830
     4.1154   4.1761   4.1903   4.2622   4.3065   4.3288   4.3540   4.3935
     4.4662   4.5128   4.5902   4.6072   4.6622   4.6781   4.7103   4.8213
     4.8244   4.9032   4.9636   4.9804   5.0111   5.0770   5.0983   5.3033
     5.3464   5.5624   9.1966  10.7804  10.8327  11.1120  11.2092  11.5403
    11.7997  12.1648  12.3041  12.4004  12.4499  12.6593  12.6826  12.7259
    12.9311  13.0654  13.0755  13.1168  13.2003  13.2150  13.2611  13.3062
    13.3262  13.3990  13.4022  13.4848  13.5887  13.6159  13.6228  13.6684
    13.6999  13.7265  13.7468  13.7830  13.9631  13.9918

     occupation numbers 
     1.0000   1.0000   1.0000   1.0000   1.0000   1.0000   1.0000   1.0000
     1.0000   1.0000   1.0000   1.0000   1.0000   1.0000   1.0000   1.0000
     1.0000   1.0000   1.0000   1.0000   1.0000   1.0000   1.0000   1.0000
     1.0000   1.0000   1.0000   1.0000   1.0000   1.0000   1.0000   1.0000
     1.0000   1.0000   1.0000   1.0000   1.0000   1.0000   1.0000   1.0000
     1.0000   1.0000   1.0000   1.0000   1.0000   1.0000   1.0000   1.0000
     1.0000   1.0000   1.0000   1.0000   1.0000   1.0000   1.0000   1.0000
     1.0000   1.0000   1.0000   1.0000   1.0000   1.0000   1.0000   1.0000
     1.0000   1.0000   1.0000   1.0000   1.0000   1.0000   1.0000   1.0000
     1.0000   1.0000   1.0000   1.0000   1.0000   1.0000   1.0000   1.0000
     1.0000   1.0000   1.0000   1.0000   1.0000   1.0000   1.0000   1.0000
     1.0000   1.0000   1.0000   1.0000   1.0000   1.0000   1.0000   1.0000
     1.0000   1.0000   1.0000   1.0000   1.0000   1.0000   1.0000   1.0000
     1.0000   1.0000   1.0000   1.0000   1.0000   1.0000   1.0000   1.0000
     1.0000   1.0000   1.0000   1.0000   1.0000   1.0000   1.0000   1.0000
     1.0000   1.0000   1.0000   1.0000   1.0000   1.0000   1.0000   1.0000
     1.0000   1.0000   1.0000   1.0000   1.0000   1.0000   1.0000   1.0000
     1.0000   1.0000   1.0000   1.0000   1.0000   1.0000   1.0000   1.0000
     1.0000   1.0000   1.0000   1.0000   1.0000   1.0000   1.0000   1.0000
     1.0000   1.0000   1.0000   1.0000   1.0000   1.0000   1.0000   1.0000
     1.0000   1.0000   1.0000   1.0000   1.0000   1.0000   1.0000   1.0000
     1.0000   1.0000   1.0000   1.0000   1.0000   1.0000   1.0000   1.0000
     1.0000   1.0000   1.0000   1.0000   1.0000   1.0000   1.0000   1.0000
     1.0000   1.0000   1.0000   1.0000   1.0000   1.0000   1.0000   1.0000
     1.0000   1.0000   1.0000   1.0000   1.0000   1.0000   1.0000   1.0000
     1.0000   1.0000   1.0000   1.0000   1.0000   1.0000   1.0000   1.0000
     1.0000   1.0000   1.0000   1.0000   1.0000   1.0000   1.0000   1.0000
     1.0000   1.0000   1.0000   1.0000   1.0000   1.0000   1.0000   1.0000
     1.0000   1.0000   1.0000   1.0000   1.0000   1.0000   1.0000   1.0000
     1.0000   1.0000   1.0000   1.0000   1.0000   1.0000   1.0000   1.0000
     1.0000   1.0000   1.0000   1.0000   1.0000   1.0000   1.0000   1.0000
     1.0000   1.0000   1.0000   1.0000   1.0000   1.0000   1.0000   1.0000
     1.0000   1.0000   1.0000   1.0000   1.0000   1.0000   1.0000   1.0000
     1.0000   1.0000   1.0000   1.0000   1.0000   1.0000   1.0000   1.0000
     1.0000   1.0000   1.0000   1.0000   1.0000   1.0000   1.0000   1.0000
     1.0000   1.0000   1.0000   1.0000   1.0000   1.0000   1.0000   1.0000
     1.0000   1.0000   1.0000   1.0000   1.0000   1.0000   1.0000   1.0000
     1.0000   1.0000   0.0000   0.0000   0.0000   0.0000   0.0000   0.0000
     0.0000   0.0000   0.0000   0.0000   0.0000   0.0000   0.0000   0.0000
     0.0000   0.0000   0.0000   0.0000   0.0000   0.0000   0.0000   0.0000
     0.0000   0.0000   0.0000   0.0000   0.0000   0.0000   0.0000   0.0000
     0.0000   0.0000   0.0000   0.0000   0.0000   0.0000

[...]
     atom   61 type  3   force =     0.00296003   -0.01050544    0.00102179
     atom   62 type  3   force =     0.00616327   -0.00876922   -0.00334406
     atom   63 type  3   force =     0.01030991    0.00045541    0.00659155
     atom   64 type  3   force =     0.00842422    0.00591912    0.00066055
     atom   65 type  3   force =     0.00747506   -0.00260199   -0.00555363
     atom   66 type  3   force =    -0.00663495    0.00275286   -0.00815282
     atom   67 type  3   force =    -0.00616327   -0.00876922   -0.00334406
     atom   68 type  3   force =    -0.01030991    0.00045541    0.00659155
     atom   69 type  3   force =    -0.00747506   -0.00260199   -0.00555363
     atom   70 type  3   force =     0.00663495    0.00275286   -0.00815282
     atom   71 type  3   force =     0.00086724   -0.00856799    0.00573539
     atom   72 type  3   force =    -0.00063079    0.00923977    0.00548521
     atom   73 type  3   force =    -0.00086724   -0.00856799    0.00573539
     atom   74 type  3   force =     0.00063079    0.00923977    0.00548521
     The Hubbard contrib.    to forces
     atom    1 type  2   force =    -0.00000739   -0.00000553   -0.00000465
     atom    2 type  2   force =     0.00000739   -0.00000553   -0.00000465
     atom    3 type  2   force =    -0.00001852   -0.00003001   -0.00000642
     atom    4 type  2   force =     0.00001852   -0.00003001   -0.00000642
     atom    5 type  2   force =    -0.00001852    0.00003001    0.00000642
     atom    6 type  2   force =     0.00001852    0.00003001    0.00000642
     atom    7 type  2   force =    -0.00000739    0.00000553    0.00000465
     atom    8 type  2   force =     0.00000739    0.00000553    0.00000465
     atom    9 type  1   force =     0.00000000    0.00000000    0.00000000
     atom   10 type  1   force =    -0.02076132   -0.00946160    0.01500518
     atom   11 type  1   force =     0.00000000    0.00000000    0.00000000
     atom   12 type  1   force =     0.02076132   -0.00946160    0.01500518
     atom   13 type  1   force =     0.00715421   -0.00942054   -0.04831874
     atom   14 type  1   force =    -0.00715421   -0.00942054   -0.04831874
     atom   15 type  1   force =     0.00715421    0.00942054    0.04831874
     atom   16 type  1   force =    -0.00715421    0.00942054    0.04831874
     atom   17 type  1   force =    -0.02076132    0.00946160   -0.01500518
     atom   18 type  1   force =     0.02076132    0.00946160   -0.01500518
     atom   19 type  4   force =    -0.00021135    0.00002513    0.00023499
     atom   20 type  4   force =     0.00021135    0.00002513    0.00023499
     atom   21 type  4   force =     0.00001256   -0.00012602    0.00001504
     atom   22 type  4   force =    -0.00001256   -0.00012602    0.00001504
     atom   23 type  4   force =    -0.00029523   -0.00004635    0.00006195
     atom   24 type  4   force =     0.00029523   -0.00004635    0.00006195
     atom   25 type  4   force =    -0.00029523    0.00004635   -0.00006195
     atom   26 type  4   force =     0.00029523    0.00004635   -0.00006195
     atom   27 type  4   force =     0.00001256    0.00012602   -0.00001504
     atom   28 type  4   force =    -0.00001256    0.00012602   -0.00001504
     atom   29 type  4   force =    -0.00021135   -0.00002513   -0.00023499
     atom   30 type  4   force =     0.00021135   -0.00002513   -0.00023499
     atom   31 type  3   force =     0.00099069    0.00026956   -0.00197796
     atom   32 type  3   force =    -0.00154009    0.00023654   -0.00168689
     atom   33 type  3   force =    -0.00099069    0.00026956   -0.00197796
     atom   34 type  3   force =     0.00154009    0.00023654   -0.00168689
     atom   35 type  3   force =    -0.00256503    0.00054552   -0.00089442
     atom   36 type  3   force =     0.00162643   -0.00033322    0.00095959
     atom   37 type  3   force =    -0.00082691   -0.00003097   -0.00141704
     atom   38 type  3   force =    -0.00095640    0.00103703   -0.00110716
     atom   39 type  3   force =     0.00256503    0.00054552   -0.00089442
     atom   40 type  3   force =    -0.00162643   -0.00033322    0.00095959
     atom   41 type  3   force =    -0.00008399   -0.00136735   -0.00054661
     atom   42 type  3   force =     0.00082691   -0.00003097   -0.00141704
     atom   43 type  3   force =     0.00095640    0.00103703   -0.00110716
     atom   44 type  3   force =     0.00146212    0.00089404   -0.00059724
     atom   45 type  3   force =     0.00008399   -0.00136735   -0.00054661
     atom   46 type  3   force =     0.00006001   -0.00158721    0.00028258
     atom   47 type  3   force =     0.00002228   -0.00000416    0.00000842
     atom   48 type  3   force =    -0.00230006   -0.00012630   -0.00183740
     atom   49 type  3   force =    -0.00146212    0.00089404   -0.00059724
     atom   50 type  3   force =    -0.00006001   -0.00158721    0.00028258
     atom   51 type  3   force =    -0.00002228   -0.00000416    0.00000842
     atom   52 type  3   force =     0.00230006   -0.00012630   -0.00183740
     atom   53 type  3   force =    -0.00230006    0.00012630    0.00183740
     atom   54 type  3   force =     0.00002228    0.00000416   -0.00000842
     atom   55 type  3   force =     0.00006001    0.00158721   -0.00028258
     atom   56 type  3   force =     0.00146212   -0.00089404    0.00059724
     atom   57 type  3   force =     0.00230006    0.00012630    0.00183740
     atom   58 type  3   force =    -0.00002228    0.00000416   -0.00000842
     atom   59 type  3   force =    -0.00006001    0.00158721   -0.00028258
     atom   60 type  3   force =    -0.00008399    0.00136735    0.00054661
     atom   61 type  3   force =    -0.00146212   -0.00089404    0.00059724
     atom   62 type  3   force =    -0.00095640   -0.00103703    0.00110716
     atom   63 type  3   force =    -0.00082691    0.00003097    0.00141704
     atom   64 type  3   force =     0.00008399    0.00136735    0.00054661
     atom   65 type  3   force =     0.00162643    0.00033322   -0.00095959
     atom   66 type  3   force =    -0.00256503   -0.00054552    0.00089442
     atom   67 type  3   force =     0.00095640   -0.00103703    0.00110716
     atom   68 type  3   force =     0.00082691    0.00003097    0.00141704
     atom   69 type  3   force =    -0.00162643    0.00033322   -0.00095959
     atom   70 type  3   force =     0.00256503   -0.00054552    0.00089442
     atom   71 type  3   force =    -0.00154009   -0.00023654    0.00168689
     atom   72 type  3   force =     0.00099069   -0.00026956    0.00197796
     atom   73 type  3   force =     0.00154009   -0.00023654    0.00168689
     atom   74 type  3   force =    -0.00099069   -0.00026956    0.00197796
     The SCF correction term to forces
     atom    1 type  2   force =     0.00000108   -0.00000009    0.00000260
     atom    2 type  2   force =    -0.00000108   -0.00000009    0.00000260
     atom    3 type  2   force =    -0.00000154   -0.00000030    0.00000099
     atom    4 type  2   force =     0.00000154   -0.00000030    0.00000099
     atom    5 type  2   force =    -0.00000154    0.00000030   -0.00000099
     atom    6 type  2   force =     0.00000154    0.00000030   -0.00000099
     atom    7 type  2   force =     0.00000108    0.00000009   -0.00000260
     atom    8 type  2   force =    -0.00000108    0.00000009   -0.00000260
     atom    9 type  1   force =     0.00000000    0.00000000    0.00000000
     atom   10 type  1   force =    -0.00000007    0.00000054    0.00000462
     atom   11 type  1   force =     0.00000000    0.00000000    0.00000000
     atom   12 type  1   force =     0.00000007    0.00000054    0.00000462
     atom   13 type  1   force =     0.00000162    0.00000493    0.00000158
     atom   14 type  1   force =    -0.00000162    0.00000493    0.00000158
     atom   15 type  1   force =     0.00000162   -0.00000493   -0.00000158
     atom   16 type  1   force =    -0.00000162   -0.00000493   -0.00000158
     atom   17 type  1   force =    -0.00000007   -0.00000054   -0.00000462
     atom   18 type  1   force =     0.00000007   -0.00000054   -0.00000462
     atom   19 type  4   force =     0.00000040   -0.00000014    0.00000025
     atom   20 type  4   force =    -0.00000040   -0.00000014    0.00000025
     atom   21 type  4   force =    -0.00000183    0.00000038    0.00000165
     atom   22 type  4   force =     0.00000183    0.00000038    0.00000165
     atom   23 type  4   force =     0.00000098   -0.00000180   -0.00000030
     atom   24 type  4   force =    -0.00000098   -0.00000180   -0.00000030
     atom   25 type  4   force =     0.00000098    0.00000180    0.00000030
     atom   26 type  4   force =    -0.00000098    0.00000180    0.00000030
     atom   27 type  4   force =    -0.00000183   -0.00000038   -0.00000165
     atom   28 type  4   force =     0.00000183   -0.00000038   -0.00000165
     atom   29 type  4   force =     0.00000040    0.00000014   -0.00000025
     atom   30 type  4   force =    -0.00000040    0.00000014   -0.00000025
     atom   31 type  3   force =    -0.00000042    0.00000083   -0.00000024
     atom   32 type  3   force =     0.00000164   -0.00000229   -0.00000027
     atom   33 type  3   force =     0.00000042    0.00000083   -0.00000024
     atom   34 type  3   force =    -0.00000164   -0.00000229   -0.00000027
     atom   35 type  3   force =    -0.00000089   -0.00000054    0.00000143
     atom   36 type  3   force =     0.00000145   -0.00000019    0.00000204
     atom   37 type  3   force =    -0.00000081    0.00000033    0.00000174
     atom   38 type  3   force =     0.00000013    0.00000013    0.00000093
     atom   39 type  3   force =     0.00000089   -0.00000054    0.00000143
     atom   40 type  3   force =    -0.00000145   -0.00000019    0.00000204
     atom   41 type  3   force =    -0.00000053   -0.00000044    0.00000177
     atom   42 type  3   force =     0.00000081    0.00000033    0.00000174
     atom   43 type  3   force =    -0.00000013    0.00000013    0.00000093
     atom   44 type  3   force =    -0.00000022    0.00000015    0.00000039
     atom   45 type  3   force =     0.00000053   -0.00000044    0.00000177
     atom   46 type  3   force =     0.00000189   -0.00000033    0.00000128
     atom   47 type  3   force =    -0.00000090    0.00000006   -0.00000016
     atom   48 type  3   force =    -0.00000006    0.00000154   -0.00000023
     atom   49 type  3   force =     0.00000022    0.00000015    0.00000039
     atom   50 type  3   force =    -0.00000189   -0.00000033    0.00000128
     atom   51 type  3   force =     0.00000090    0.00000006   -0.00000016
     atom   52 type  3   force =     0.00000006    0.00000154   -0.00000023
     atom   53 type  3   force =    -0.00000006   -0.00000154    0.00000023
     atom   54 type  3   force =    -0.00000090   -0.00000006    0.00000016
     atom   55 type  3   force =     0.00000189    0.00000033   -0.00000128
     atom   56 type  3   force =    -0.00000022   -0.00000015   -0.00000039
     atom   57 type  3   force =     0.00000006   -0.00000154    0.00000023
     atom   58 type  3   force =     0.00000090   -0.00000006    0.00000016
     atom   59 type  3   force =    -0.00000189    0.00000033   -0.00000128
     atom   60 type  3   force =    -0.00000053    0.00000044   -0.00000177
     atom   61 type  3   force =     0.00000022   -0.00000015   -0.00000039
     atom   62 type  3   force =     0.00000013   -0.00000013   -0.00000093
     atom   63 type  3   force =    -0.00000081   -0.00000033   -0.00000174
     atom   64 type  3   force =     0.00000053    0.00000044   -0.00000177
     atom   65 type  3   force =     0.00000145    0.00000019   -0.00000204
     atom   66 type  3   force =    -0.00000089    0.00000054   -0.00000143
     atom   67 type  3   force =    -0.00000013   -0.00000013   -0.00000093
     atom   68 type  3   force =     0.00000081   -0.00000033   -0.00000174
     atom   69 type  3   force =    -0.00000145    0.00000019   -0.00000204
     atom   70 type  3   force =     0.00000089    0.00000054   -0.00000143
     atom   71 type  3   force =     0.00000164    0.00000229    0.00000027
     atom   72 type  3   force =    -0.00000042   -0.00000083    0.00000024
     atom   73 type  3   force =    -0.00000164    0.00000229    0.00000027
     atom   74 type  3   force =     0.00000042   -0.00000083    0.00000024

     Total force =     0.000532     Total SCF correction =     0.000021


     Computing stress (Cartesian axis) and pressure


     negative rho (up, down):  0.000E+00 1.631E-03
     stres_hub    :    467.91s CPU    469.96s WALL (       1 calls)
     dprojdepsilo :    401.81s CPU    403.27s WALL (     720 calls)
     dprojdeps1   :    198.82s CPU    199.36s WALL (     720 calls)
     dprojdeps2   :    127.99s CPU    128.51s WALL (     720 calls)
     dprojdeps3   :     75.00s CPU     75.40s WALL (     720 calls)
          total   stress  (Ry/bohr**3)                   (kbar)     P=        0.00
  -0.00000015   0.00000000   0.00000000           -0.02        0.00        0.00
   0.00000000   0.00000037  -0.00000036            0.00        0.05       -0.05
   0.00000000  -0.00000036  -0.00000013            0.00       -0.05       -0.02

     kinetic stress (kbar)  25082.66      0.00      0.00
                                0.00  25107.80     22.44
                                0.00     22.44  24984.25

     local   stress (kbar)  -3345.46     -0.00     -0.00
                               -0.00  -3658.81    527.18
                               -0.00    527.18   3078.58

     nonloc. stress (kbar) -12116.44      0.00      0.00
                                0.00 -12091.34      8.83
                                0.00      8.83 -12133.18

     hartree stress (kbar)  16901.00     -0.00      0.00
                               -0.00  16958.39   -182.69
                                0.00   -182.69  13313.97

     exc-cor stress (kbar)  -3265.82      0.00      0.00
                                0.00  -3265.50     -0.23
                                0.00     -0.23  -3265.41

     corecor stress (kbar)  -2859.29     -0.00     -0.00
                               -0.00  -2862.77     -0.63
                               -0.00     -0.63  -2858.23

     ewald   stress (kbar) -20174.75      0.00      0.00
                                0.00 -19964.49   -373.87
                                0.00   -373.87 -22902.82

     hubbard stress (kbar)   -221.92      0.00      0.00
                                0.00   -223.24     -1.10
                                0.00     -1.10   -217.17

     DFT-D   stress (kbar)      0.00      0.00      0.00
                                0.00      0.00      0.00
                                0.00      0.00      0.00

     XDM     stress (kbar)      0.00      0.00      0.00
                                0.00      0.00      0.00
                                0.00      0.00      0.00

     dft-nl  stress (kbar)      0.00      0.00      0.00
                                0.00      0.00      0.00
                                0.00      0.00      0.00

     TS-vdW  stress (kbar)      0.00      0.00      0.00
                                0.00      0.00      0.00
                                0.00      0.00      0.00

     MDB     stress (kbar)      0.00      0.00      0.00
                                0.00      0.00      0.00
                                0.00      0.00      0.00

     3D-RISM stress (kbar)      0.00      0.00      0.00
                                0.00      0.00      0.00
                                0.00      0.00      0.00


     Writing all to output data dir ./out/aiida.save/ :
     XML data file, charge density, pseudopotentials, collected wavefunctions
 
     init_run     :     41.79s CPU     71.90s WALL (       1 calls)
     electrons    :    176.46s CPU    177.83s WALL (       1 calls)
     forces       :    326.71s CPU    327.96s WALL (       1 calls)
     stress       :    493.44s CPU    495.60s WALL (       1 calls)

     Called by init_run:
     wfcinit      :     26.47s CPU     54.67s WALL (       1 calls)
     potinit      :      1.68s CPU      2.42s WALL (       1 calls)
     hinit0       :     11.40s CPU     11.72s WALL (       1 calls)

     Called by electrons:
     c_bands      :     96.41s CPU     96.82s WALL (       2 calls)
     sum_band     :     77.78s CPU     78.26s WALL (       2 calls)
     v_of_rho     :      0.38s CPU      0.58s WALL (       2 calls)
     v_h          :      0.12s CPU      0.27s WALL (       2 calls)
     v_xc         :      0.52s CPU      0.65s WALL (       4 calls)
     newd         :      0.56s CPU      0.63s WALL (       2 calls)
     PAW_pot      :      1.67s CPU      1.69s WALL (       2 calls)
     mix_rho      :      0.05s CPU      0.05s WALL (       2 calls)

     Called by c_bands:
     init_us_2    :      2.68s CPU      2.69s WALL (     720 calls)
     cegterg      :     63.38s CPU     63.56s WALL (     160 calls)

     Called by sum_band:
     sum_band:wei :      0.00s CPU      0.00s WALL (       2 calls)
     sum_band:loo :     27.02s CPU     27.09s WALL (       2 calls)
     sum_band:buf :     13.98s CPU     14.02s WALL (     160 calls)
     sum_band:ini :      0.60s CPU      0.60s WALL (     160 calls)
     sum_band:cal :      0.01s CPU      0.01s WALL (     160 calls)
     sum_band:bec :      2.44s CPU      2.45s WALL (     160 calls)
     addusdens    :      1.15s CPU      1.25s WALL (       2 calls)
                                        1.25s GPU  (       2 calls)
     addusd:skk   :      0.01s CPU      0.01s WALL (       8 calls)
                                        0.01s GPU  (       8 calls)

     Called by *egterg:
     cdiaghg      :      4.76s CPU      4.86s WALL (     446 calls)
                                        4.85s GPU  (     446 calls)
     cegterg:over :      4.31s CPU      4.32s WALL (     206 calls)
     cegterg:upda :      1.91s CPU      1.92s WALL (     206 calls)
     cegterg:last :      2.24s CPU      2.24s WALL (     206 calls)
     h_psi        :     45.43s CPU     45.55s WALL (     366 calls)
     s_psi        :      9.21s CPU      9.23s WALL (     766 calls)
     g_psi        :      0.12s CPU      0.12s WALL (     206 calls)

     Called by h_psi:
     h_psi:calbec :      0.01s CPU      0.01s WALL (     366 calls)
     vloc_psi     :     37.15s CPU     37.26s WALL (     366 calls)
                                       37.26s GPU  (     366 calls)
     add_vuspsi   :      4.39s CPU      4.40s WALL (     366 calls)
     vhpsi        :      3.54s CPU      3.55s WALL (     366 calls)

     General routines
     calbec       :     42.42s CPU     42.59s WALL (  572012 calls)
     fft          :      0.81s CPU      0.89s WALL (      90 calls)
                                        0.09s GPU  (      86 calls)
     ffts         :      0.11s CPU      0.11s WALL (       8 calls)
                                        0.00s GPU  (       4 calls)
     fftw         :      0.13s CPU     34.09s WALL (   16892 calls)
                                       33.98s GPU  (   16892 calls)
     interpolate  :      0.97s CPU      1.15s WALL (       4 calls)
 
     Parallel routines

     Hubbard U routines
     new_ns       :     48.92s CPU     49.09s WALL (       2 calls)
     vhpsi        :      3.54s CPU      3.55s WALL (     366 calls)
     force_hub    :    312.10s CPU    313.24s WALL (       1 calls)
     stres_hub    :    467.91s CPU    469.96s WALL (       1 calls)

     PAW routines
     PAW_pot      :      1.67s CPU      1.69s WALL (       2 calls)
     PAW_symme    :      0.00s CPU      0.00s WALL (       3 calls)
 
     PWSCF        :  17m31.07s CPU  18m32.52s WALL

 
   This run was terminated on:  20:57:32  15Oct2025            

=------------------------------------------------------------------------------=
   JOB DONE.
=------------------------------------------------------------------------------=
