
     Program PWSCF v.7.4.1 starts on 26Oct2025 at 23: 4:26 

     This program is part of the open-source Quantum ESPRESSO suite
     for quantum simulation of materials; please cite
         "P. Giannozzi et al., J. Phys.:Condens. Matter 21 395502 (2009);
         "P. Giannozzi et al., J. Phys.:Condens. Matter 29 465901 (2017);
         "P. Giannozzi et al., J. Chem. Phys. 152 154105 (2020);
          URL http://www.quantum-espresso.org", 
     in publications or presentations arising from this work. More details at
     http://www.quantum-espresso.org/quote

     Parallel version (MPI & OpenMP), running on       1 processor cores
     Number of MPI processes:                 1
     Threads/MPI process:                     1

     MPI processes distributed on     1 nodes
     424095 MiB available memory on the printing compute node when the environment starts
 
     Reading input from pwscf.in
Warning: card &FCP ignored
Warning: card &RISM ignored

     Current dimensions of program PWSCF are:
     Max number of different atomic species (ntypx) = 10
     Max number of k-points (npk) =  40000
     Max angular momentum in pseudopotentials (lmaxx) =  4

     File ./out/aiida.update deleted, as requested
     file K.pbesol-spn-kjpaw_psl.1.0.0.UPF: wavefunction(s)  3S renormalized
     file O.pbesol-n-kjpaw_psl.0.1.UPF: wavefunction(s)  2P renormalized
 check tnoseh fnoseh  F    1.000000000000000     
     Message from routine setup:
     using ibrav=0 with symmetry is DISCOURAGED, use correct ibrav instead
 
     Subspace diagonalization in iterative solution of the eigenvalue problem:
     a serial algorithm will be used

 
     G-vector sticks info
     --------------------
     sticks:   dense  smooth     PW     G-vecs:    dense   smooth      PW
     Sum        6431    2137    603               462281    88937   13529
 
     Using Slab Decomposition
 


     bravais-lattice index     =            0
     lattice parameter (alat)  =      10.9176  a.u.
     unit-cell volume          =    1256.7118 (a.u.)^3
     number of atoms/cell      =           13
     number of atomic types    =            4
     number of electrons       =       119.00
     number of Kohn-Sham states=           72
     kinetic-energy cutoff     =      65.0000  Ry
     charge density cutoff     =     780.0000  Ry
     scf convergence threshold =      2.6E-09
     mixing beta               =       0.4000
     number of iterations used =            8  plain     mixing
     energy convergence thresh.=      1.3E-04
     force convergence thresh. =      1.0E-04
     press convergence thresh. =      5.0E-01
     Exchange-correlation= SLA  PW   PSX  PSC
                           (   1   4  10   8   0   0   0)
     nstep                     =           30


     GPU acceleration is ACTIVE.  1 visible GPUs per MPI rank
     GPU-aware MPI enabled


     GPU used by master process:

        Device Number: 0
        Device name: NVIDIA A100-SXM-64GB
        Compute capability : 80
        Ratio of single to double precision performance  : 2
        Memory Clock Rate (KHz): 1593000
        Memory Bus Width (bits): 4096
        Peak Memory Bandwidth (GB/s): ******
     Hubbard projectors: ortho-atomic
     Hubbard parameters of DFT+U (Dudarev formulation) in eV:
     U(Co-3d) =  5.2000
     U(Mn-3d) =  4.7000

     Internal variables: lda_plus_u = T, lda_plus_u_kind = 0

     celldm(1)=  10.917622  celldm(2)=   0.000000  celldm(3)=   0.000000
     celldm(4)=   0.000000  celldm(5)=   0.000000  celldm(6)=   0.000000

     crystal axes: (cart. coord. in units of alat)
               a(1) = (   0.999996  -0.002222   0.001685 )  
               a(2) = (   0.496889   0.867810   0.001685 )  
               a(3) = (   0.461843   0.267065   1.112454 )  

     reciprocal axes: (cart. coord. in units 2 pi/alat)
               b(1) = (  0.999201 -0.571582 -0.277606 )  
               b(2) = (  0.003026  1.151132 -0.277606 )  
               b(3) = ( -0.001518 -0.000878  0.899754 )  


     PseudoPot. # 1 for Co read from file:
     /leonardo_scratch/large/userexternal/nalghamd/mc_mace/GNoME-screening/2_space_group_DFT/pseudo_SSSP1.3_aiida/co_pbesol_v1.2.uspp.F.UPF
     MD5 check sum: 3b4cd4e7cc7df4da9fdede0fd33e2193
     Pseudo is Ultrasoft + core correction, Zval = 17.0
     Generated by new atomic code, or converted to UPF format
     Using radial grid of  863 points,  6 beta functions with: 
                l(1) =   0
                l(2) =   0
                l(3) =   1
                l(4) =   1
                l(5) =   2
                l(6) =   2
     Q(r) pseudized with  8 coefficients,  rinner =    1.200   1.200   1.200
                                                       1.200   1.200

     PseudoPot. # 2 for K  read from file:
     /leonardo_scratch/large/userexternal/nalghamd/mc_mace/GNoME-screening/2_space_group_DFT/pseudo_SSSP1.3_aiida/K.pbesol-spn-kjpaw_psl.1.0.0.UPF
     MD5 check sum: b302bede38c4f5fe00638ceae66f121b
     Pseudo is Projector augmented-wave + core cor, Zval =  9.0
     Generated using "atomic" code by A. Dal Corso  v.6.0 svn rev. 13079
     Shape of augmentation charge: PSQ
     Using radial grid of 1165 points,  6 beta functions with: 
                l(1) =   0
                l(2) =   0
                l(3) =   1
                l(4) =   1
                l(5) =   2
                l(6) =   2
     Q(r) pseudized with 0 coefficients 


     PseudoPot. # 3 for Mn read from file:
     /leonardo_scratch/large/userexternal/nalghamd/mc_mace/GNoME-screening/2_space_group_DFT/pseudo_SSSP1.3_aiida/mn_pbesol_v1.5.uspp.F.UPF
     MD5 check sum: 0716d5f563e6e95a34f9080f4c78c109
     Pseudo is Ultrasoft + core correction, Zval = 15.0
     Generated by new atomic code, or converted to UPF format
     Using radial grid of  859 points,  6 beta functions with: 
                l(1) =   0
                l(2) =   0
                l(3) =   1
                l(4) =   1
                l(5) =   2
                l(6) =   2
     Q(r) pseudized with  8 coefficients,  rinner =    0.950   0.950   0.950
                                                       0.950   0.950

     PseudoPot. # 4 for O  read from file:
     /leonardo_scratch/large/userexternal/nalghamd/mc_mace/GNoME-screening/2_space_group_DFT/pseudo_SSSP1.3_aiida/O.pbesol-n-kjpaw_psl.0.1.UPF
     MD5 check sum: 81d73d1479e654e5638b0319f0d6c2c7
     Pseudo is Projector augmented-wave + core cor, Zval =  6.0
     Generated using "atomic" code by A. Dal Corso  v.6.0 svn rev. 13079
     Shape of augmentation charge: BESSEL
     Using radial grid of 1095 points,  4 beta functions with: 
                l(1) =   0
                l(2) =   0
                l(3) =   1
                l(4) =   1
     Q(r) pseudized with 0 coefficients 


     atomic species   valence    mass     pseudopotential
     Co               17.00    58.93319     Co( 1.00)
     K                 9.00    39.09830     K ( 1.00)
     Mn               15.00    54.93805     Mn( 1.00)
     O                 6.00    15.99940     O ( 1.00)

     Starting magnetic structure 
     atomic species   magnetization
     Co              0.294
     K               0.100
     Mn              0.333
     O               0.100

      2 Sym. Ops., with inversion, found


                                    s                        frac. trans.

      isym =  1     identity                                     

 cryst.   s( 1) = (     1          0          0      )
                  (     0          1          0      )
                  (     0          0          1      )

 cart.    s( 1) = (  1.0000000 -0.0000000  0.0000000 )
                  ( -0.0000000  1.0000000  0.0000000 )
                  ( -0.0000000  0.0000000  1.0000000 )


      isym =  2     inversion                                    

 cryst.   s( 2) = (    -1          0          0      )
                  (     0         -1          0      )
                  (     0          0         -1      )

 cart.    s( 2) = ( -1.0000000  0.0000000 -0.0000000 )
                  (  0.0000000 -1.0000000 -0.0000000 )
                  (  0.0000000 -0.0000000 -1.0000000 )


   Cartesian axes

     site n.     atom                  positions (alat units)
         1        K      tau(   1) = (   0.9793642   0.5663265   0.5579120  )
         2        Mn     tau(   2) = (   0.0000000   0.0000000   0.0000000  )
         3        Mn     tau(   3) = (   0.2484447   0.4339051   0.0008423  )
         4        Mn     tau(   4) = (   0.4999981  -0.0011111   0.0008424  )
         5        Co     tau(   5) = (   0.7484428   0.4327940   0.0016848  )
         6        O      tau(   6) = (   1.4672699   0.8484623   0.9462708  )
         7        O      tau(   7) = (   1.2118720   0.3976197   0.9423703  )
         8        O      tau(   8) = (   0.9491221   0.8519966   0.9423692  )
         9        O      tau(   9) = (   0.7129103   0.4122468   0.9426864  )
        10        O      tau(  10) = (   1.2458181   0.7204063   0.1731376  )
        11        O      tau(  11) = (   1.0096062   0.2806565   0.1734547  )
        12        O      tau(  12) = (   0.7468564   0.7350334   0.1734536  )
        13        O      tau(  13) = (   0.4914584   0.2841908   0.1695531  )

   Crystallographic axes

     site n.     atom                  positions (cryst. coord.)
         1        K      tau(   1) = (  0.5000000  0.5000000  0.5000000  )
         2        Mn     tau(   2) = (  0.0000000  0.0000000  0.0000000  )
         3        Mn     tau(   3) = ( -0.0000000  0.5000000  0.0000000  )
         4        Mn     tau(   4) = (  0.5000000 -0.0000000 -0.0000000  )
         5        Co     tau(   5) = (  0.5000000  0.5000000  0.0000000  )
         6        O      tau(   6) = (  0.7184415  0.7184408  0.8484393  )
         7        O      tau(   7) = (  0.7220240  0.1997715  0.8457131  )
         8        O      tau(   8) = (  0.1997704  0.7220245  0.8457122  )
         9        O      tau(   9) = (  0.2150124  0.2150118  0.8467420  )
        10        O      tau(  10) = (  0.7849876  0.7849882  0.1532580  )
        11        O      tau(  11) = (  0.8002296  0.2779755  0.1542878  )
        12        O      tau(  12) = (  0.2779760  0.8002285  0.1542869  )
        13        O      tau(  13) = (  0.2815585  0.2815592  0.1515607  )

     number of k points=   284  Marzari-Vanderbilt smearing, width (Ry)=  0.0200
                       cart. coord. in units 2pi/alat
        k(    1) = (   0.0000000   0.0000000   0.0000000), wk =   0.0017637
        k(    2) = (  -0.0002168  -0.0001254   0.1285363), wk =   0.0035273
        k(    3) = (  -0.0004337  -0.0002507   0.2570726), wk =   0.0035273
        k(    4) = (  -0.0006505  -0.0003761   0.3856089), wk =   0.0035273
        k(    5) = (   0.0003362   0.1279035  -0.0308452), wk =   0.0035273
        k(    6) = (   0.0001194   0.1277782   0.0976911), wk =   0.0035273
        k(    7) = (  -0.0000975   0.1276528   0.2262274), wk =   0.0035273
        k(    8) = (  -0.0003143   0.1275275   0.3547637), wk =   0.0035273
        k(    9) = (   0.0009867   0.1282796  -0.4164541), wk =   0.0035273
        k(   10) = (   0.0007699   0.1281543  -0.2879178), wk =   0.0035273
        k(   11) = (   0.0005531   0.1280289  -0.1593815), wk =   0.0035273
        k(   12) = (   0.0006724   0.2558071  -0.0616903), wk =   0.0035273
        k(   13) = (   0.0004556   0.2556817   0.0668460), wk =   0.0035273
        k(   14) = (   0.0002387   0.2555564   0.1953823), wk =   0.0035273
        k(   15) = (   0.0000219   0.2554310   0.3239186), wk =   0.0035273
        k(   16) = (   0.0013230   0.2561832  -0.4472992), wk =   0.0035273
        k(   17) = (   0.0011061   0.2560578  -0.3187629), wk =   0.0035273
        k(   18) = (   0.0008893   0.2559325  -0.1902266), wk =   0.0035273
        k(   19) = (   0.0010086   0.3837106  -0.0925355), wk =   0.0035273
        k(   20) = (   0.0007918   0.3835853   0.0360008), wk =   0.0035273
        k(   21) = (   0.0005749   0.3834599   0.1645371), wk =   0.0035273
        k(   22) = (   0.0003581   0.3833346   0.2930734), wk =   0.0035273
        k(   23) = (   0.0016592   0.3840867  -0.4781444), wk =   0.0035273
        k(   24) = (   0.0014423   0.3839614  -0.3496081), wk =   0.0035273
        k(   25) = (   0.0012255   0.3838360  -0.2210718), wk =   0.0035273
        k(   26) = (   0.0013448   0.5116142  -0.1233807), wk =   0.0035273
        k(   27) = (   0.0011280   0.5114888   0.0051556), wk =   0.0035273
        k(   28) = (   0.0009111   0.5113635   0.1336919), wk =   0.0035273
        k(   29) = (   0.0006943   0.5112381   0.2622282), wk =   0.0035273
        k(   30) = (   0.0019954   0.5119903  -0.5089895), wk =   0.0035273
        k(   31) = (   0.0017785   0.5118649  -0.3804533), wk =   0.0035273
        k(   32) = (   0.0015617   0.5117396  -0.2519170), wk =   0.0035273
        k(   33) = (   0.1110224  -0.0635091  -0.0308451), wk =   0.0035273
        k(   34) = (   0.1108055  -0.0636345   0.0976912), wk =   0.0035273
        k(   35) = (   0.1105887  -0.0637599   0.2262275), wk =   0.0035273
        k(   36) = (   0.1103718  -0.0638852   0.3547638), wk =   0.0035273
        k(   37) = (   0.1116729  -0.0631331  -0.4164540), wk =   0.0035273
        k(   38) = (   0.1114561  -0.0632584  -0.2879177), wk =   0.0035273
        k(   39) = (   0.1112392  -0.0633838  -0.1593814), wk =   0.0035273
        k(   40) = (   0.1113586   0.0643944  -0.0616903), wk =   0.0035273
        k(   41) = (   0.1111417   0.0642690   0.0668460), wk =   0.0035273
        k(   42) = (   0.1109249   0.0641437   0.1953823), wk =   0.0035273
        k(   43) = (   0.1107080   0.0640183   0.3239186), wk =   0.0035273
        k(   44) = (   0.1120091   0.0647705  -0.4472992), wk =   0.0035273
        k(   45) = (   0.1117923   0.0646451  -0.3187629), wk =   0.0035273
        k(   46) = (   0.1115754   0.0645198  -0.1902266), wk =   0.0035273
        k(   47) = (   0.1116948   0.1922980  -0.0925355), wk =   0.0035273
        k(   48) = (   0.1114779   0.1921726   0.0360008), wk =   0.0035273
        k(   49) = (   0.1112611   0.1920472   0.1645371), wk =   0.0035273
        k(   50) = (   0.1110443   0.1919219   0.2930734), wk =   0.0035273
        k(   51) = (   0.1123453   0.1926740  -0.4781443), wk =   0.0035273
        k(   52) = (   0.1121285   0.1925487  -0.3496081), wk =   0.0035273
        k(   53) = (   0.1119116   0.1924233  -0.2210718), wk =   0.0035273
        k(   54) = (   0.1120310   0.3202015  -0.1233806), wk =   0.0035273
        k(   55) = (   0.1118142   0.3200761   0.0051557), wk =   0.0035273
        k(   56) = (   0.1115973   0.3199508   0.1336920), wk =   0.0035273
        k(   57) = (   0.1113805   0.3198254   0.2622283), wk =   0.0035273
        k(   58) = (   0.1126815   0.3205776  -0.5089895), wk =   0.0035273
        k(   59) = (   0.1124647   0.3204522  -0.3804532), wk =   0.0035273
        k(   60) = (   0.1122478   0.3203269  -0.2519169), wk =   0.0035273
        k(   61) = (   0.1123672   0.4481050  -0.1542258), wk =   0.0035273
        k(   62) = (   0.1121504   0.4479797  -0.0256895), wk =   0.0035273
        k(   63) = (   0.1119335   0.4478543   0.1028468), wk =   0.0035273
        k(   64) = (   0.1117167   0.4477290   0.2313831), wk =   0.0035273
        k(   65) = (   0.1130177   0.4484811  -0.5398347), wk =   0.0035273
        k(   66) = (   0.1128009   0.4483558  -0.4112984), wk =   0.0035273
        k(   67) = (   0.1125841   0.4482304  -0.2827621), wk =   0.0035273
        k(   68) = (   0.1096776  -0.5751233   0.0925355), wk =   0.0035273
        k(   69) = (   0.1094607  -0.5752487   0.2210718), wk =   0.0035273
        k(   70) = (   0.1092439  -0.5753741   0.3496081), wk =   0.0035273
        k(   71) = (   0.1090270  -0.5754994   0.4781444), wk =   0.0035273
        k(   72) = (   0.1103281  -0.5747473  -0.2930734), wk =   0.0035273
        k(   73) = (   0.1101112  -0.5748726  -0.1645371), wk =   0.0035273
        k(   74) = (   0.1098944  -0.5749980  -0.0360008), wk =   0.0035273
        k(   75) = (   0.1100138  -0.4472198   0.0616904), wk =   0.0035273
        k(   76) = (   0.1097969  -0.4473452   0.1902267), wk =   0.0035273
        k(   77) = (   0.1095801  -0.4474705   0.3187630), wk =   0.0035273
        k(   78) = (   0.1093632  -0.4475959   0.4472992), wk =   0.0035273
        k(   79) = (   0.1106643  -0.4468437  -0.3239185), wk =   0.0035273
        k(   80) = (   0.1104475  -0.4469691  -0.1953822), wk =   0.0035273
        k(   81) = (   0.1102306  -0.4470944  -0.0668459), wk =   0.0035273
        k(   82) = (   0.1103500  -0.3193162   0.0308452), wk =   0.0035273
        k(   83) = (   0.1101331  -0.3194416   0.1593815), wk =   0.0035273
        k(   84) = (   0.1099163  -0.3195670   0.2879178), wk =   0.0035273
        k(   85) = (   0.1096994  -0.3196923   0.4164541), wk =   0.0035273
        k(   86) = (   0.1110005  -0.3189402  -0.3547637), wk =   0.0035273
        k(   87) = (   0.1107837  -0.3190655  -0.2262274), wk =   0.0035273
        k(   88) = (   0.1105668  -0.3191909  -0.0976911), wk =   0.0035273
        k(   89) = (   0.1106862  -0.1914127   0.0000000), wk =   0.0035273
        k(   90) = (   0.1104693  -0.1915381   0.1285363), wk =   0.0035273
        k(   91) = (   0.1102525  -0.1916634   0.2570726), wk =   0.0035273
        k(   92) = (   0.1100356  -0.1917888   0.3856089), wk =   0.0035273
        k(   93) = (   0.1113367  -0.1910366  -0.3856089), wk =   0.0035273
        k(   94) = (   0.1111199  -0.1911620  -0.2570726), wk =   0.0035273
        k(   95) = (   0.1109030  -0.1912873  -0.1285363), wk =   0.0035273
        k(   96) = (   0.2220448  -0.1270183  -0.0616903), wk =   0.0035273
        k(   97) = (   0.2218279  -0.1271437   0.0668460), wk =   0.0035273
        k(   98) = (   0.2216111  -0.1272690   0.1953823), wk =   0.0035273
        k(   99) = (   0.2213942  -0.1273944   0.3239186), wk =   0.0035273
        k(  100) = (   0.2226953  -0.1266422  -0.4472991), wk =   0.0035273
        k(  101) = (   0.2224785  -0.1267676  -0.3187629), wk =   0.0035273
        k(  102) = (   0.2222616  -0.1268929  -0.1902266), wk =   0.0035273
        k(  103) = (   0.2223810   0.0008853  -0.0925354), wk =   0.0035273
        k(  104) = (   0.2221641   0.0007599   0.0360009), wk =   0.0035273
        k(  105) = (   0.2219473   0.0006345   0.1645372), wk =   0.0035273
        k(  106) = (   0.2217304   0.0005092   0.2930735), wk =   0.0035273
        k(  107) = (   0.2230315   0.0012613  -0.4781443), wk =   0.0035273
        k(  108) = (   0.2228147   0.0011360  -0.3496080), wk =   0.0035273
        k(  109) = (   0.2225978   0.0010106  -0.2210717), wk =   0.0035273
        k(  110) = (   0.2227172   0.1287888  -0.1233806), wk =   0.0035273
        k(  111) = (   0.2225003   0.1286634   0.0051557), wk =   0.0035273
        k(  112) = (   0.2222835   0.1285381   0.1336920), wk =   0.0035273
        k(  113) = (   0.2220666   0.1284127   0.2622283), wk =   0.0035273
        k(  114) = (   0.2233677   0.1291649  -0.5089895), wk =   0.0035273
        k(  115) = (   0.2231509   0.1290395  -0.3804532), wk =   0.0035273
        k(  116) = (   0.2229340   0.1289142  -0.2519169), wk =   0.0035273
        k(  117) = (   0.2230534   0.2566924  -0.1542258), wk =   0.0035273
        k(  118) = (   0.2228365   0.2565670  -0.0256895), wk =   0.0035273
        k(  119) = (   0.2226197   0.2564416   0.1028468), wk =   0.0035273
        k(  120) = (   0.2224028   0.2563163   0.2313831), wk =   0.0035273
        k(  121) = (   0.2237039   0.2570684  -0.5398346), wk =   0.0035273
        k(  122) = (   0.2234871   0.2569431  -0.4112984), wk =   0.0035273
        k(  123) = (   0.2232702   0.2568177  -0.2827621), wk =   0.0035273
        k(  124) = (   0.2233896   0.3845959  -0.1850709), wk =   0.0035273
        k(  125) = (   0.2231727   0.3844705  -0.0565346), wk =   0.0035273
        k(  126) = (   0.2229559   0.3843452   0.0720017), wk =   0.0035273
        k(  127) = (   0.2227390   0.3842198   0.2005380), wk =   0.0035273
        k(  128) = (   0.2240401   0.3849720  -0.5706798), wk =   0.0035273
        k(  129) = (   0.2238233   0.3848466  -0.4421435), wk =   0.0035273
        k(  130) = (   0.2236064   0.3847213  -0.3136072), wk =   0.0035273
        k(  131) = (   0.2206999  -0.6386325   0.0616904), wk =   0.0035273
        k(  132) = (   0.2204831  -0.6387578   0.1902267), wk =   0.0035273
        k(  133) = (   0.2202662  -0.6388832   0.3187630), wk =   0.0035273
        k(  134) = (   0.2200494  -0.6390086   0.4472993), wk =   0.0035273
        k(  135) = (   0.2213505  -0.6382564  -0.3239185), wk =   0.0035273
        k(  136) = (   0.2211336  -0.6383818  -0.1953822), wk =   0.0035273
        k(  137) = (   0.2209168  -0.6385071  -0.0668459), wk =   0.0035273
        k(  138) = (   0.2210361  -0.5107289   0.0308452), wk =   0.0035273
        k(  139) = (   0.2208193  -0.5108543   0.1593815), wk =   0.0035273
        k(  140) = (   0.2206024  -0.5109797   0.2879178), wk =   0.0035273
        k(  141) = (   0.2203856  -0.5111050   0.4164541), wk =   0.0035273
        k(  142) = (   0.2216867  -0.5103529  -0.3547637), wk =   0.0035273
        k(  143) = (   0.2214698  -0.5104782  -0.2262274), wk =   0.0035273
        k(  144) = (   0.2212530  -0.5106036  -0.0976911), wk =   0.0035273
        k(  145) = (   0.2213723  -0.3828254   0.0000001), wk =   0.0035273
        k(  146) = (   0.2211555  -0.3829507   0.1285364), wk =   0.0035273
        k(  147) = (   0.2209387  -0.3830761   0.2570727), wk =   0.0035273
        k(  148) = (   0.2207218  -0.3832015   0.3856090), wk =   0.0035273
        k(  149) = (   0.2220229  -0.3824493  -0.3856088), wk =   0.0035273
        k(  150) = (   0.2218060  -0.3825747  -0.2570725), wk =   0.0035273
        k(  151) = (   0.2215892  -0.3827000  -0.1285362), wk =   0.0035273
        k(  152) = (   0.2217086  -0.2549218  -0.0308451), wk =   0.0035273
        k(  153) = (   0.2214917  -0.2550472   0.0976912), wk =   0.0035273
        k(  154) = (   0.2212749  -0.2551726   0.2262275), wk =   0.0035273
        k(  155) = (   0.2210580  -0.2552979   0.3547638), wk =   0.0035273
        k(  156) = (   0.2223591  -0.2545458  -0.4164540), wk =   0.0035273
        k(  157) = (   0.2221422  -0.2546711  -0.2879177), wk =   0.0035273
        k(  158) = (   0.2219254  -0.2547965  -0.1593814), wk =   0.0035273
        k(  159) = (   0.3330671  -0.1905274  -0.0925354), wk =   0.0035273
        k(  160) = (   0.3328503  -0.1906528   0.0360009), wk =   0.0035273
        k(  161) = (   0.3326334  -0.1907782   0.1645372), wk =   0.0035273
        k(  162) = (   0.3324166  -0.1909035   0.2930735), wk =   0.0035273
        k(  163) = (   0.3337177  -0.1901514  -0.4781443), wk =   0.0035273
        k(  164) = (   0.3335008  -0.1902767  -0.3496080), wk =   0.0035273
        k(  165) = (   0.3332840  -0.1904021  -0.2210717), wk =   0.0035273
        k(  166) = (   0.3334033  -0.0626239  -0.1233806), wk =   0.0035273
        k(  167) = (   0.3331865  -0.0627492   0.0051557), wk =   0.0035273
        k(  168) = (   0.3329697  -0.0628746   0.1336920), wk =   0.0035273
        k(  169) = (   0.3327528  -0.0630000   0.2622283), wk =   0.0035273
        k(  170) = (   0.3340539  -0.0622478  -0.5089894), wk =   0.0035273
        k(  171) = (   0.3338370  -0.0623732  -0.3804532), wk =   0.0035273
        k(  172) = (   0.3336202  -0.0624985  -0.2519169), wk =   0.0035273
        k(  173) = (   0.3337396   0.0652797  -0.1542257), wk =   0.0035273
        k(  174) = (   0.3335227   0.0651543  -0.0256894), wk =   0.0035273
        k(  175) = (   0.3333059   0.0650289   0.1028469), wk =   0.0035273
        k(  176) = (   0.3330890   0.0649036   0.2313832), wk =   0.0035273
        k(  177) = (   0.3343901   0.0656557  -0.5398346), wk =   0.0035273
        k(  178) = (   0.3341732   0.0655304  -0.4112983), wk =   0.0035273
        k(  179) = (   0.3339564   0.0654050  -0.2827620), wk =   0.0035273
        k(  180) = (   0.3340758   0.1931832  -0.1850709), wk =   0.0035273
        k(  181) = (   0.3338589   0.1930578  -0.0565346), wk =   0.0035273
        k(  182) = (   0.3336421   0.1929325   0.0720017), wk =   0.0035273
        k(  183) = (   0.3334252   0.1928071   0.2005380), wk =   0.0035273
        k(  184) = (   0.3347263   0.1935593  -0.5706798), wk =   0.0035273
        k(  185) = (   0.3345095   0.1934339  -0.4421435), wk =   0.0035273
        k(  186) = (   0.3342926   0.1933086  -0.3136072), wk =   0.0035273
        k(  187) = (   0.3344120   0.3210868  -0.2159161), wk =   0.0035273
        k(  188) = (   0.3341951   0.3209614  -0.0873798), wk =   0.0035273
        k(  189) = (   0.3339783   0.3208360   0.0411565), wk =   0.0035273
        k(  190) = (   0.3337614   0.3207107   0.1696928), wk =   0.0035273
        k(  191) = (   0.3350625   0.3214628  -0.6015249), wk =   0.0035273
        k(  192) = (   0.3348457   0.3213375  -0.4729886), wk =   0.0035273
        k(  193) = (   0.3346288   0.3212121  -0.3444524), wk =   0.0035273
        k(  194) = (   0.3317223  -0.7021416   0.0308453), wk =   0.0035273
        k(  195) = (   0.3315055  -0.7022670   0.1593816), wk =   0.0035273
        k(  196) = (   0.3312886  -0.7023923   0.2879179), wk =   0.0035273
        k(  197) = (   0.3310718  -0.7025177   0.4164541), wk =   0.0035273
        k(  198) = (   0.3323728  -0.7017655  -0.3547636), wk =   0.0035273
        k(  199) = (   0.3321560  -0.7018909  -0.2262273), wk =   0.0035273
        k(  200) = (   0.3319392  -0.7020163  -0.0976910), wk =   0.0035273
        k(  201) = (   0.3320585  -0.5742381   0.0000001), wk =   0.0035273
        k(  202) = (   0.3318417  -0.5743634   0.1285364), wk =   0.0035273
        k(  203) = (   0.3316248  -0.5744888   0.2570727), wk =   0.0035273
        k(  204) = (   0.3314080  -0.5746142   0.3856090), wk =   0.0035273
        k(  205) = (   0.3327091  -0.5738620  -0.3856088), wk =   0.0035273
        k(  206) = (   0.3324922  -0.5739874  -0.2570725), wk =   0.0035273
        k(  207) = (   0.3322754  -0.5741127  -0.1285362), wk =   0.0035273
        k(  208) = (   0.3323947  -0.4463345  -0.0308451), wk =   0.0035273
        k(  209) = (   0.3321779  -0.4464599   0.0976912), wk =   0.0035273
        k(  210) = (   0.3319610  -0.4465853   0.2262275), wk =   0.0035273
        k(  211) = (   0.3317442  -0.4467106   0.3547638), wk =   0.0035273
        k(  212) = (   0.3330453  -0.4459585  -0.4164540), wk =   0.0035273
        k(  213) = (   0.3328284  -0.4460838  -0.2879177), wk =   0.0035273
        k(  214) = (   0.3326116  -0.4462092  -0.1593814), wk =   0.0035273
        k(  215) = (   0.3327309  -0.3184310  -0.0616902), wk =   0.0035273
        k(  216) = (   0.3325141  -0.3185563   0.0668461), wk =   0.0035273
        k(  217) = (   0.3322972  -0.3186817   0.1953824), wk =   0.0035273
        k(  218) = (   0.3320804  -0.3188071   0.3239187), wk =   0.0035273
        k(  219) = (   0.3333815  -0.3180549  -0.4472991), wk =   0.0035273
        k(  220) = (   0.3331646  -0.3181803  -0.3187628), wk =   0.0035273
        k(  221) = (   0.3329478  -0.3183056  -0.1902265), wk =   0.0035273
        k(  222) = (   0.4440895  -0.2540366  -0.1233805), wk =   0.0035273
        k(  223) = (   0.4438727  -0.2541619   0.0051558), wk =   0.0035273
        k(  224) = (   0.4436558  -0.2542873   0.1336921), wk =   0.0035273
        k(  225) = (   0.4434390  -0.2544127   0.2622284), wk =   0.0035273
        k(  226) = (   0.4447401  -0.2536605  -0.5089894), wk =   0.0035273
        k(  227) = (   0.4445232  -0.2537859  -0.3804531), wk =   0.0035273
        k(  228) = (   0.4443064  -0.2539112  -0.2519168), wk =   0.0035273
        k(  229) = (   0.4444257  -0.1261330  -0.1542257), wk =   0.0035273
        k(  230) = (   0.4442089  -0.1262584  -0.0256894), wk =   0.0035273
        k(  231) = (   0.4439920  -0.1263838   0.1028469), wk =   0.0035273
        k(  232) = (   0.4437752  -0.1265091   0.2313832), wk =   0.0035273
        k(  233) = (   0.4450763  -0.1257570  -0.5398346), wk =   0.0035273
        k(  234) = (   0.4448594  -0.1258823  -0.4112983), wk =   0.0035273
        k(  235) = (   0.4446426  -0.1260077  -0.2827620), wk =   0.0035273
        k(  236) = (   0.4447619   0.0017705  -0.1850709), wk =   0.0035273
        k(  237) = (   0.4445451   0.0016452  -0.0565346), wk =   0.0035273
        k(  238) = (   0.4443282   0.0015198   0.0720017), wk =   0.0035273
        k(  239) = (   0.4441114   0.0013944   0.2005380), wk =   0.0035273
        k(  240) = (   0.4454125   0.0021466  -0.5706797), wk =   0.0035273
        k(  241) = (   0.4451956   0.0020212  -0.4421435), wk =   0.0035273
        k(  242) = (   0.4449788   0.0018959  -0.3136072), wk =   0.0035273
        k(  243) = (   0.4450981   0.1296741  -0.2159160), wk =   0.0035273
        k(  244) = (   0.4448813   0.1295487  -0.0873797), wk =   0.0035273
        k(  245) = (   0.4446644   0.1294233   0.0411566), wk =   0.0035273
        k(  246) = (   0.4444476   0.1292980   0.1696929), wk =   0.0035273
        k(  247) = (   0.4457487   0.1300501  -0.6015249), wk =   0.0035273
        k(  248) = (   0.4455318   0.1299248  -0.4729886), wk =   0.0035273
        k(  249) = (   0.4453150   0.1297994  -0.3444523), wk =   0.0035273
        k(  250) = (   0.4454343   0.2575776  -0.2467612), wk =   0.0035273
        k(  251) = (   0.4452175   0.2574523  -0.1182249), wk =   0.0035273
        k(  252) = (   0.4450007   0.2573269   0.0103114), wk =   0.0035273
        k(  253) = (   0.4447838   0.2572015   0.1388477), wk =   0.0035273
        k(  254) = (   0.4460849   0.2579537  -0.6323701), wk =   0.0035273
        k(  255) = (   0.4458680   0.2578283  -0.5038338), wk =   0.0035273
        k(  256) = (   0.4456512   0.2577030  -0.3752975), wk =   0.0035273
        k(  257) = (   0.4427447  -0.7656508   0.0000001), wk =   0.0035273
        k(  258) = (   0.4425278  -0.7657761   0.1285364), wk =   0.0035273
        k(  259) = (   0.4423110  -0.7659015   0.2570727), wk =   0.0035273
        k(  260) = (   0.4420941  -0.7660269   0.3856090), wk =   0.0035273
        k(  261) = (   0.4433952  -0.7652747  -0.3856088), wk =   0.0035273
        k(  262) = (   0.4431784  -0.7654001  -0.2570725), wk =   0.0035273
        k(  263) = (   0.4429615  -0.7655254  -0.1285362), wk =   0.0035273
        k(  264) = (   0.4430809  -0.6377472  -0.0308450), wk =   0.0035273
        k(  265) = (   0.4428640  -0.6378726   0.0976913), wk =   0.0035273
        k(  266) = (   0.4426472  -0.6379979   0.2262276), wk =   0.0035273
        k(  267) = (   0.4424304  -0.6381233   0.3547639), wk =   0.0035273
        k(  268) = (   0.4437314  -0.6373711  -0.4164539), wk =   0.0035273
        k(  269) = (   0.4435146  -0.6374965  -0.2879176), wk =   0.0035273
        k(  270) = (   0.4432977  -0.6376219  -0.1593813), wk =   0.0035273
        k(  271) = (   0.4434171  -0.5098437  -0.0616902), wk =   0.0035273
        k(  272) = (   0.4432003  -0.5099690   0.0668461), wk =   0.0035273
        k(  273) = (   0.4429834  -0.5100944   0.1953824), wk =   0.0035273
        k(  274) = (   0.4427666  -0.5102198   0.3239187), wk =   0.0035273
        k(  275) = (   0.4440676  -0.5094676  -0.4472991), wk =   0.0035273
        k(  276) = (   0.4438508  -0.5095930  -0.3187628), wk =   0.0035273
        k(  277) = (   0.4436339  -0.5097183  -0.1902265), wk =   0.0035273
        k(  278) = (   0.4437533  -0.3819401  -0.0925354), wk =   0.0035273
        k(  279) = (   0.4435365  -0.3820655   0.0360009), wk =   0.0035273
        k(  280) = (   0.4433196  -0.3821908   0.1645372), wk =   0.0035273
        k(  281) = (   0.4431028  -0.3823162   0.2930735), wk =   0.0035273
        k(  282) = (   0.4444038  -0.3815640  -0.4781442), wk =   0.0035273
        k(  283) = (   0.4441870  -0.3816894  -0.3496080), wk =   0.0035273
        k(  284) = (   0.4439702  -0.3818148  -0.2210717), wk =   0.0035273

                       cryst. coord.
        k(    1) = (   0.0000000   0.0000000   0.0000000), wk =   0.0017637
        k(    2) = (  -0.0000000  -0.0000000   0.1428571), wk =   0.0035273
        k(    3) = (  -0.0000000  -0.0000000   0.2857143), wk =   0.0035273
        k(    4) = (   0.0000000   0.0000000   0.4285714), wk =   0.0035273
        k(    5) = (  -0.0000000   0.1111111   0.0000000), wk =   0.0035273
        k(    6) = (  -0.0000000   0.1111111   0.1428571), wk =   0.0035273
        k(    7) = (  -0.0000000   0.1111111   0.2857143), wk =   0.0035273
        k(    8) = (  -0.0000000   0.1111111   0.4285714), wk =   0.0035273
        k(    9) = (  -0.0000000   0.1111111  -0.4285714), wk =   0.0035273
        k(   10) = (  -0.0000000   0.1111111  -0.2857143), wk =   0.0035273
        k(   11) = (  -0.0000000   0.1111111  -0.1428571), wk =   0.0035273
        k(   12) = (  -0.0000000   0.2222222   0.0000000), wk =   0.0035273
        k(   13) = (  -0.0000000   0.2222222   0.1428571), wk =   0.0035273
        k(   14) = (  -0.0000000   0.2222222   0.2857143), wk =   0.0035273
        k(   15) = (  -0.0000000   0.2222222   0.4285714), wk =   0.0035273
        k(   16) = (  -0.0000000   0.2222222  -0.4285714), wk =   0.0035273
        k(   17) = (  -0.0000000   0.2222222  -0.2857143), wk =   0.0035273
        k(   18) = (  -0.0000000   0.2222222  -0.1428571), wk =   0.0035273
        k(   19) = (  -0.0000000   0.3333333   0.0000000), wk =   0.0035273
        k(   20) = (  -0.0000000   0.3333333   0.1428571), wk =   0.0035273
        k(   21) = (  -0.0000000   0.3333333   0.2857143), wk =   0.0035273
        k(   22) = (  -0.0000000   0.3333333   0.4285714), wk =   0.0035273
        k(   23) = (  -0.0000000   0.3333333  -0.4285714), wk =   0.0035273
        k(   24) = (  -0.0000000   0.3333333  -0.2857143), wk =   0.0035273
        k(   25) = (  -0.0000000   0.3333333  -0.1428571), wk =   0.0035273
        k(   26) = (  -0.0000000   0.4444444   0.0000000), wk =   0.0035273
        k(   27) = (  -0.0000000   0.4444444   0.1428571), wk =   0.0035273
        k(   28) = (  -0.0000000   0.4444444   0.2857143), wk =   0.0035273
        k(   29) = (  -0.0000000   0.4444444   0.4285714), wk =   0.0035273
        k(   30) = (  -0.0000000   0.4444444  -0.4285714), wk =   0.0035273
        k(   31) = (  -0.0000000   0.4444444  -0.2857143), wk =   0.0035273
        k(   32) = (  -0.0000000   0.4444444  -0.1428571), wk =   0.0035273
        k(   33) = (   0.1111111  -0.0000000  -0.0000000), wk =   0.0035273
        k(   34) = (   0.1111111  -0.0000000   0.1428571), wk =   0.0035273
        k(   35) = (   0.1111111  -0.0000000   0.2857143), wk =   0.0035273
        k(   36) = (   0.1111111  -0.0000000   0.4285714), wk =   0.0035273
        k(   37) = (   0.1111111   0.0000000  -0.4285714), wk =   0.0035273
        k(   38) = (   0.1111111   0.0000000  -0.2857143), wk =   0.0035273
        k(   39) = (   0.1111111  -0.0000000  -0.1428571), wk =   0.0035273
        k(   40) = (   0.1111111   0.1111111  -0.0000000), wk =   0.0035273
        k(   41) = (   0.1111111   0.1111111   0.1428571), wk =   0.0035273
        k(   42) = (   0.1111111   0.1111111   0.2857143), wk =   0.0035273
        k(   43) = (   0.1111111   0.1111111   0.4285714), wk =   0.0035273
        k(   44) = (   0.1111111   0.1111111  -0.4285714), wk =   0.0035273
        k(   45) = (   0.1111111   0.1111111  -0.2857143), wk =   0.0035273
        k(   46) = (   0.1111111   0.1111111  -0.1428571), wk =   0.0035273
        k(   47) = (   0.1111111   0.2222222   0.0000000), wk =   0.0035273
        k(   48) = (   0.1111111   0.2222222   0.1428571), wk =   0.0035273
        k(   49) = (   0.1111111   0.2222222   0.2857143), wk =   0.0035273
        k(   50) = (   0.1111111   0.2222222   0.4285714), wk =   0.0035273
        k(   51) = (   0.1111111   0.2222222  -0.4285714), wk =   0.0035273
        k(   52) = (   0.1111111   0.2222222  -0.2857143), wk =   0.0035273
        k(   53) = (   0.1111111   0.2222222  -0.1428571), wk =   0.0035273
        k(   54) = (   0.1111111   0.3333333   0.0000000), wk =   0.0035273
        k(   55) = (   0.1111111   0.3333333   0.1428571), wk =   0.0035273
        k(   56) = (   0.1111111   0.3333333   0.2857143), wk =   0.0035273
        k(   57) = (   0.1111111   0.3333333   0.4285714), wk =   0.0035273
        k(   58) = (   0.1111111   0.3333333  -0.4285714), wk =   0.0035273
        k(   59) = (   0.1111111   0.3333333  -0.2857143), wk =   0.0035273
        k(   60) = (   0.1111111   0.3333333  -0.1428571), wk =   0.0035273
        k(   61) = (   0.1111111   0.4444444  -0.0000000), wk =   0.0035273
        k(   62) = (   0.1111111   0.4444444   0.1428571), wk =   0.0035273
        k(   63) = (   0.1111111   0.4444444   0.2857143), wk =   0.0035273
        k(   64) = (   0.1111111   0.4444444   0.4285714), wk =   0.0035273
        k(   65) = (   0.1111111   0.4444444  -0.4285714), wk =   0.0035273
        k(   66) = (   0.1111111   0.4444444  -0.2857143), wk =   0.0035273
        k(   67) = (   0.1111111   0.4444444  -0.1428571), wk =   0.0035273
        k(   68) = (   0.1111111  -0.4444444  -0.0000000), wk =   0.0035273
        k(   69) = (   0.1111111  -0.4444444   0.1428571), wk =   0.0035273
        k(   70) = (   0.1111111  -0.4444444   0.2857143), wk =   0.0035273
        k(   71) = (   0.1111111  -0.4444444   0.4285714), wk =   0.0035273
        k(   72) = (   0.1111111  -0.4444444  -0.4285714), wk =   0.0035273
        k(   73) = (   0.1111111  -0.4444444  -0.2857143), wk =   0.0035273
        k(   74) = (   0.1111111  -0.4444444  -0.1428571), wk =   0.0035273
        k(   75) = (   0.1111111  -0.3333333  -0.0000000), wk =   0.0035273
        k(   76) = (   0.1111111  -0.3333333   0.1428571), wk =   0.0035273
        k(   77) = (   0.1111111  -0.3333333   0.2857143), wk =   0.0035273
        k(   78) = (   0.1111111  -0.3333333   0.4285714), wk =   0.0035273
        k(   79) = (   0.1111111  -0.3333333  -0.4285714), wk =   0.0035273
        k(   80) = (   0.1111111  -0.3333333  -0.2857143), wk =   0.0035273
        k(   81) = (   0.1111111  -0.3333333  -0.1428571), wk =   0.0035273
        k(   82) = (   0.1111111  -0.2222222  -0.0000000), wk =   0.0035273
        k(   83) = (   0.1111111  -0.2222222   0.1428571), wk =   0.0035273
        k(   84) = (   0.1111111  -0.2222222   0.2857143), wk =   0.0035273
        k(   85) = (   0.1111111  -0.2222222   0.4285714), wk =   0.0035273
        k(   86) = (   0.1111111  -0.2222222  -0.4285714), wk =   0.0035273
        k(   87) = (   0.1111111  -0.2222222  -0.2857143), wk =   0.0035273
        k(   88) = (   0.1111111  -0.2222222  -0.1428571), wk =   0.0035273
        k(   89) = (   0.1111111  -0.1111111  -0.0000000), wk =   0.0035273
        k(   90) = (   0.1111111  -0.1111111   0.1428571), wk =   0.0035273
        k(   91) = (   0.1111111  -0.1111111   0.2857143), wk =   0.0035273
        k(   92) = (   0.1111111  -0.1111111   0.4285714), wk =   0.0035273
        k(   93) = (   0.1111111  -0.1111111  -0.4285714), wk =   0.0035273
        k(   94) = (   0.1111111  -0.1111111  -0.2857143), wk =   0.0035273
        k(   95) = (   0.1111111  -0.1111111  -0.1428571), wk =   0.0035273
        k(   96) = (   0.2222222  -0.0000000  -0.0000000), wk =   0.0035273
        k(   97) = (   0.2222222  -0.0000000   0.1428571), wk =   0.0035273
        k(   98) = (   0.2222222  -0.0000000   0.2857143), wk =   0.0035273
        k(   99) = (   0.2222222   0.0000000   0.4285714), wk =   0.0035273
        k(  100) = (   0.2222222  -0.0000000  -0.4285714), wk =   0.0035273
        k(  101) = (   0.2222222  -0.0000000  -0.2857143), wk =   0.0035273
        k(  102) = (   0.2222222  -0.0000000  -0.1428571), wk =   0.0035273
        k(  103) = (   0.2222222   0.1111111  -0.0000000), wk =   0.0035273
        k(  104) = (   0.2222222   0.1111111   0.1428571), wk =   0.0035273
        k(  105) = (   0.2222222   0.1111111   0.2857143), wk =   0.0035273
        k(  106) = (   0.2222222   0.1111111   0.4285714), wk =   0.0035273
        k(  107) = (   0.2222222   0.1111111  -0.4285714), wk =   0.0035273
        k(  108) = (   0.2222222   0.1111111  -0.2857143), wk =   0.0035273
        k(  109) = (   0.2222222   0.1111111  -0.1428571), wk =   0.0035273
        k(  110) = (   0.2222222   0.2222222  -0.0000000), wk =   0.0035273
        k(  111) = (   0.2222222   0.2222222   0.1428571), wk =   0.0035273
        k(  112) = (   0.2222222   0.2222222   0.2857143), wk =   0.0035273
        k(  113) = (   0.2222222   0.2222222   0.4285714), wk =   0.0035273
        k(  114) = (   0.2222222   0.2222222  -0.4285714), wk =   0.0035273
        k(  115) = (   0.2222222   0.2222222  -0.2857143), wk =   0.0035273
        k(  116) = (   0.2222222   0.2222222  -0.1428571), wk =   0.0035273
        k(  117) = (   0.2222222   0.3333333  -0.0000000), wk =   0.0035273
        k(  118) = (   0.2222222   0.3333333   0.1428571), wk =   0.0035273
        k(  119) = (   0.2222222   0.3333333   0.2857143), wk =   0.0035273
        k(  120) = (   0.2222222   0.3333333   0.4285714), wk =   0.0035273
        k(  121) = (   0.2222222   0.3333333  -0.4285714), wk =   0.0035273
        k(  122) = (   0.2222222   0.3333333  -0.2857143), wk =   0.0035273
        k(  123) = (   0.2222222   0.3333333  -0.1428571), wk =   0.0035273
        k(  124) = (   0.2222222   0.4444444   0.0000000), wk =   0.0035273
        k(  125) = (   0.2222222   0.4444444   0.1428571), wk =   0.0035273
        k(  126) = (   0.2222222   0.4444444   0.2857143), wk =   0.0035273
        k(  127) = (   0.2222222   0.4444444   0.4285714), wk =   0.0035273
        k(  128) = (   0.2222222   0.4444444  -0.4285714), wk =   0.0035273
        k(  129) = (   0.2222222   0.4444444  -0.2857143), wk =   0.0035273
        k(  130) = (   0.2222222   0.4444444  -0.1428571), wk =   0.0035273
        k(  131) = (   0.2222222  -0.4444444  -0.0000000), wk =   0.0035273
        k(  132) = (   0.2222222  -0.4444444   0.1428571), wk =   0.0035273
        k(  133) = (   0.2222222  -0.4444444   0.2857143), wk =   0.0035273
        k(  134) = (   0.2222222  -0.4444444   0.4285714), wk =   0.0035273
        k(  135) = (   0.2222222  -0.4444444  -0.4285714), wk =   0.0035273
        k(  136) = (   0.2222222  -0.4444444  -0.2857143), wk =   0.0035273
        k(  137) = (   0.2222222  -0.4444444  -0.1428571), wk =   0.0035273
        k(  138) = (   0.2222222  -0.3333333  -0.0000000), wk =   0.0035273
        k(  139) = (   0.2222222  -0.3333333   0.1428571), wk =   0.0035273
        k(  140) = (   0.2222222  -0.3333333   0.2857143), wk =   0.0035273
        k(  141) = (   0.2222222  -0.3333333   0.4285714), wk =   0.0035273
        k(  142) = (   0.2222222  -0.3333333  -0.4285714), wk =   0.0035273
        k(  143) = (   0.2222222  -0.3333333  -0.2857143), wk =   0.0035273
        k(  144) = (   0.2222222  -0.3333333  -0.1428571), wk =   0.0035273
        k(  145) = (   0.2222222  -0.2222222  -0.0000000), wk =   0.0035273
        k(  146) = (   0.2222222  -0.2222222   0.1428571), wk =   0.0035273
        k(  147) = (   0.2222222  -0.2222222   0.2857143), wk =   0.0035273
        k(  148) = (   0.2222222  -0.2222222   0.4285714), wk =   0.0035273
        k(  149) = (   0.2222222  -0.2222222  -0.4285714), wk =   0.0035273
        k(  150) = (   0.2222222  -0.2222222  -0.2857143), wk =   0.0035273
        k(  151) = (   0.2222222  -0.2222222  -0.1428571), wk =   0.0035273
        k(  152) = (   0.2222222  -0.1111111  -0.0000000), wk =   0.0035273
        k(  153) = (   0.2222222  -0.1111111   0.1428571), wk =   0.0035273
        k(  154) = (   0.2222222  -0.1111111   0.2857143), wk =   0.0035273
        k(  155) = (   0.2222222  -0.1111111   0.4285714), wk =   0.0035273
        k(  156) = (   0.2222222  -0.1111111  -0.4285714), wk =   0.0035273
        k(  157) = (   0.2222222  -0.1111111  -0.2857143), wk =   0.0035273
        k(  158) = (   0.2222222  -0.1111111  -0.1428571), wk =   0.0035273
        k(  159) = (   0.3333333  -0.0000000  -0.0000000), wk =   0.0035273
        k(  160) = (   0.3333333  -0.0000000   0.1428571), wk =   0.0035273
        k(  161) = (   0.3333333  -0.0000000   0.2857143), wk =   0.0035273
        k(  162) = (   0.3333333   0.0000000   0.4285714), wk =   0.0035273
        k(  163) = (   0.3333333  -0.0000000  -0.4285714), wk =   0.0035273
        k(  164) = (   0.3333333  -0.0000000  -0.2857143), wk =   0.0035273
        k(  165) = (   0.3333333  -0.0000000  -0.1428571), wk =   0.0035273
        k(  166) = (   0.3333333   0.1111111  -0.0000000), wk =   0.0035273
        k(  167) = (   0.3333333   0.1111111   0.1428571), wk =   0.0035273
        k(  168) = (   0.3333333   0.1111111   0.2857143), wk =   0.0035273
        k(  169) = (   0.3333333   0.1111111   0.4285714), wk =   0.0035273
        k(  170) = (   0.3333333   0.1111111  -0.4285714), wk =   0.0035273
        k(  171) = (   0.3333333   0.1111111  -0.2857143), wk =   0.0035273
        k(  172) = (   0.3333333   0.1111111  -0.1428571), wk =   0.0035273
        k(  173) = (   0.3333333   0.2222222  -0.0000000), wk =   0.0035273
        k(  174) = (   0.3333333   0.2222222   0.1428571), wk =   0.0035273
        k(  175) = (   0.3333333   0.2222222   0.2857143), wk =   0.0035273
        k(  176) = (   0.3333333   0.2222222   0.4285714), wk =   0.0035273
        k(  177) = (   0.3333333   0.2222222  -0.4285714), wk =   0.0035273
        k(  178) = (   0.3333333   0.2222222  -0.2857143), wk =   0.0035273
        k(  179) = (   0.3333333   0.2222222  -0.1428571), wk =   0.0035273
        k(  180) = (   0.3333333   0.3333333  -0.0000000), wk =   0.0035273
        k(  181) = (   0.3333333   0.3333333   0.1428571), wk =   0.0035273
        k(  182) = (   0.3333333   0.3333333   0.2857143), wk =   0.0035273
        k(  183) = (   0.3333333   0.3333333   0.4285714), wk =   0.0035273
        k(  184) = (   0.3333333   0.3333333  -0.4285714), wk =   0.0035273
        k(  185) = (   0.3333333   0.3333333  -0.2857143), wk =   0.0035273
        k(  186) = (   0.3333333   0.3333333  -0.1428571), wk =   0.0035273
        k(  187) = (   0.3333333   0.4444444  -0.0000000), wk =   0.0035273
        k(  188) = (   0.3333333   0.4444444   0.1428571), wk =   0.0035273
        k(  189) = (   0.3333333   0.4444444   0.2857143), wk =   0.0035273
        k(  190) = (   0.3333333   0.4444444   0.4285714), wk =   0.0035273
        k(  191) = (   0.3333333   0.4444444  -0.4285714), wk =   0.0035273
        k(  192) = (   0.3333333   0.4444444  -0.2857143), wk =   0.0035273
        k(  193) = (   0.3333333   0.4444444  -0.1428571), wk =   0.0035273
        k(  194) = (   0.3333333  -0.4444444  -0.0000000), wk =   0.0035273
        k(  195) = (   0.3333333  -0.4444444   0.1428571), wk =   0.0035273
        k(  196) = (   0.3333333  -0.4444444   0.2857143), wk =   0.0035273
        k(  197) = (   0.3333333  -0.4444444   0.4285714), wk =   0.0035273
        k(  198) = (   0.3333333  -0.4444444  -0.4285714), wk =   0.0035273
        k(  199) = (   0.3333333  -0.4444444  -0.2857143), wk =   0.0035273
        k(  200) = (   0.3333333  -0.4444444  -0.1428571), wk =   0.0035273
        k(  201) = (   0.3333333  -0.3333333  -0.0000000), wk =   0.0035273
        k(  202) = (   0.3333333  -0.3333333   0.1428571), wk =   0.0035273
        k(  203) = (   0.3333333  -0.3333333   0.2857143), wk =   0.0035273
        k(  204) = (   0.3333333  -0.3333333   0.4285714), wk =   0.0035273
        k(  205) = (   0.3333333  -0.3333333  -0.4285714), wk =   0.0035273
        k(  206) = (   0.3333333  -0.3333333  -0.2857143), wk =   0.0035273
        k(  207) = (   0.3333333  -0.3333333  -0.1428571), wk =   0.0035273
        k(  208) = (   0.3333333  -0.2222222  -0.0000000), wk =   0.0035273
        k(  209) = (   0.3333333  -0.2222222   0.1428571), wk =   0.0035273
        k(  210) = (   0.3333333  -0.2222222   0.2857143), wk =   0.0035273
        k(  211) = (   0.3333333  -0.2222222   0.4285714), wk =   0.0035273
        k(  212) = (   0.3333333  -0.2222222  -0.4285714), wk =   0.0035273
        k(  213) = (   0.3333333  -0.2222222  -0.2857143), wk =   0.0035273
        k(  214) = (   0.3333333  -0.2222222  -0.1428571), wk =   0.0035273
        k(  215) = (   0.3333333  -0.1111111  -0.0000000), wk =   0.0035273
        k(  216) = (   0.3333333  -0.1111111   0.1428571), wk =   0.0035273
        k(  217) = (   0.3333333  -0.1111111   0.2857143), wk =   0.0035273
        k(  218) = (   0.3333333  -0.1111111   0.4285714), wk =   0.0035273
        k(  219) = (   0.3333333  -0.1111111  -0.4285714), wk =   0.0035273
        k(  220) = (   0.3333333  -0.1111111  -0.2857143), wk =   0.0035273
        k(  221) = (   0.3333333  -0.1111111  -0.1428571), wk =   0.0035273
        k(  222) = (   0.4444444  -0.0000000  -0.0000000), wk =   0.0035273
        k(  223) = (   0.4444444  -0.0000000   0.1428571), wk =   0.0035273
        k(  224) = (   0.4444444  -0.0000000   0.2857143), wk =   0.0035273
        k(  225) = (   0.4444444  -0.0000000   0.4285714), wk =   0.0035273
        k(  226) = (   0.4444444  -0.0000000  -0.4285714), wk =   0.0035273
        k(  227) = (   0.4444444  -0.0000000  -0.2857143), wk =   0.0035273
        k(  228) = (   0.4444444   0.0000000  -0.1428571), wk =   0.0035273
        k(  229) = (   0.4444444   0.1111111   0.0000000), wk =   0.0035273
        k(  230) = (   0.4444444   0.1111111   0.1428571), wk =   0.0035273
        k(  231) = (   0.4444444   0.1111111   0.2857143), wk =   0.0035273
        k(  232) = (   0.4444444   0.1111111   0.4285714), wk =   0.0035273
        k(  233) = (   0.4444444   0.1111111  -0.4285714), wk =   0.0035273
        k(  234) = (   0.4444444   0.1111111  -0.2857143), wk =   0.0035273
        k(  235) = (   0.4444444   0.1111111  -0.1428571), wk =   0.0035273
        k(  236) = (   0.4444444   0.2222222  -0.0000000), wk =   0.0035273
        k(  237) = (   0.4444444   0.2222222   0.1428571), wk =   0.0035273
        k(  238) = (   0.4444444   0.2222222   0.2857143), wk =   0.0035273
        k(  239) = (   0.4444444   0.2222222   0.4285714), wk =   0.0035273
        k(  240) = (   0.4444444   0.2222222  -0.4285714), wk =   0.0035273
        k(  241) = (   0.4444444   0.2222222  -0.2857143), wk =   0.0035273
        k(  242) = (   0.4444444   0.2222222  -0.1428571), wk =   0.0035273
        k(  243) = (   0.4444444   0.3333333   0.0000000), wk =   0.0035273
        k(  244) = (   0.4444444   0.3333333   0.1428571), wk =   0.0035273
        k(  245) = (   0.4444444   0.3333333   0.2857143), wk =   0.0035273
        k(  246) = (   0.4444444   0.3333333   0.4285714), wk =   0.0035273
        k(  247) = (   0.4444444   0.3333333  -0.4285714), wk =   0.0035273
        k(  248) = (   0.4444444   0.3333333  -0.2857143), wk =   0.0035273
        k(  249) = (   0.4444444   0.3333333  -0.1428571), wk =   0.0035273
        k(  250) = (   0.4444444   0.4444444  -0.0000000), wk =   0.0035273
        k(  251) = (   0.4444444   0.4444444   0.1428571), wk =   0.0035273
        k(  252) = (   0.4444444   0.4444444   0.2857143), wk =   0.0035273
        k(  253) = (   0.4444444   0.4444444   0.4285714), wk =   0.0035273
        k(  254) = (   0.4444444   0.4444444  -0.4285714), wk =   0.0035273
        k(  255) = (   0.4444444   0.4444444  -0.2857143), wk =   0.0035273
        k(  256) = (   0.4444444   0.4444444  -0.1428571), wk =   0.0035273
        k(  257) = (   0.4444444  -0.4444444  -0.0000000), wk =   0.0035273
        k(  258) = (   0.4444444  -0.4444444   0.1428571), wk =   0.0035273
        k(  259) = (   0.4444444  -0.4444444   0.2857143), wk =   0.0035273
        k(  260) = (   0.4444444  -0.4444444   0.4285714), wk =   0.0035273
        k(  261) = (   0.4444444  -0.4444444  -0.4285714), wk =   0.0035273
        k(  262) = (   0.4444444  -0.4444444  -0.2857143), wk =   0.0035273
        k(  263) = (   0.4444444  -0.4444444  -0.1428571), wk =   0.0035273
        k(  264) = (   0.4444444  -0.3333333  -0.0000000), wk =   0.0035273
        k(  265) = (   0.4444444  -0.3333333   0.1428571), wk =   0.0035273
        k(  266) = (   0.4444444  -0.3333333   0.2857143), wk =   0.0035273
        k(  267) = (   0.4444444  -0.3333333   0.4285714), wk =   0.0035273
        k(  268) = (   0.4444444  -0.3333333  -0.4285714), wk =   0.0035273
        k(  269) = (   0.4444444  -0.3333333  -0.2857143), wk =   0.0035273
        k(  270) = (   0.4444444  -0.3333333  -0.1428571), wk =   0.0035273
        k(  271) = (   0.4444444  -0.2222222  -0.0000000), wk =   0.0035273
        k(  272) = (   0.4444444  -0.2222222   0.1428571), wk =   0.0035273
        k(  273) = (   0.4444444  -0.2222222   0.2857143), wk =   0.0035273
        k(  274) = (   0.4444444  -0.2222222   0.4285714), wk =   0.0035273
        k(  275) = (   0.4444444  -0.2222222  -0.4285714), wk =   0.0035273
        k(  276) = (   0.4444444  -0.2222222  -0.2857143), wk =   0.0035273
        k(  277) = (   0.4444444  -0.2222222  -0.1428571), wk =   0.0035273
        k(  278) = (   0.4444444  -0.1111111  -0.0000000), wk =   0.0035273
        k(  279) = (   0.4444444  -0.1111111   0.1428571), wk =   0.0035273
        k(  280) = (   0.4444444  -0.1111111   0.2857143), wk =   0.0035273
        k(  281) = (   0.4444444  -0.1111111   0.4285714), wk =   0.0035273
        k(  282) = (   0.4444444  -0.1111111  -0.4285714), wk =   0.0035273
        k(  283) = (   0.4444444  -0.1111111  -0.2857143), wk =   0.0035273
        k(  284) = (   0.4444444  -0.1111111  -0.1428571), wk =   0.0035273

     Dense  grid:   462281 G-vectors     FFT dimensions: ( 100, 100, 120)

     Smooth grid:    88937 G-vectors     FFT dimensions: (  60,  60,  72)

     Dynamical RAM for                 wfc:      12.22 MB

     Dynamical RAM for     wfc (w. buffer):    6951.98 MB

     Dynamical RAM for             U proj.:       3.39 MB

     Dynamical RAM for  U proj. (w. buff.):    1931.11 MB

     Dynamical RAM for           str. fact:      28.22 MB

     Dynamical RAM for           local pot:       0.00 MB

     Dynamical RAM for          nlocal pot:      26.13 MB

     Dynamical RAM for                qrad:      17.92 MB

     Dynamical RAM for          rho,v,vnew:      97.25 MB

     Dynamical RAM for               rhoin:      32.42 MB

     Dynamical RAM for            rho*nmix:     225.72 MB

     Dynamical RAM for           G-vectors:      27.13 MB

     Dynamical RAM for          h,s,v(r/c):       0.95 MB

     Dynamical RAM for          <psi|beta>:       0.17 MB

     Dynamical RAM for                 psi:      24.44 MB

     Dynamical RAM for                hpsi:      24.44 MB

     Dynamical RAM for                spsi:      24.44 MB

     Dynamical RAM for      wfcinit/wfcrot:      24.55 MB

     Dynamical RAM for           addusdens:    1375.50 MB

     Dynamical RAM for          addusforce:    1474.32 MB

     Dynamical RAM for         addusstress:    1428.40 MB

     Estimated static dynamical RAM per process >       8.99 GB

     Estimated max dynamical RAM per process >      10.65 GB

     Check: negative core charge=   -0.000009
     Generating pointlists ...
     new r_m :   0.1407 (alat units)  1.5358 (a.u.) for type    1
     new r_m :   0.1980 (alat units)  2.1614 (a.u.) for type    2
     new r_m :   0.1362 (alat units)  1.4873 (a.u.) for type    3
     new r_m :   0.1362 (alat units)  1.4873 (a.u.) for type    4

     Initial potential from superposition of free atoms

     starting charge     116.4812, renormalised to     119.0000

     HUBBARD ENERGY =    0.2293  (Ry)

     STARTING HUBBARD OCCUPATIONS:

     =================== HUBBARD OCCUPATIONS ===================
     ------------------------ ATOM    2 ------------------------
     Tr[ns(  2)] (up, down, total) =   5.00000  0.00000  5.00000
     Atomic magnetic moment for atom   2 =   5.00000
     SPIN  1
     eigenvalues:
       1.000  1.000  1.000  1.000  1.000
     eigenvectors (columns):
       1.000  0.000  0.000  0.000  0.000
       0.000  1.000  0.000  0.000  0.000
       0.000  0.000  1.000  0.000  0.000
       0.000  0.000  0.000  1.000  0.000
       0.000  0.000  0.000  0.000  1.000
     occupation matrix ns (before diag.):
       1.000  0.000  0.000  0.000  0.000
       0.000  1.000  0.000  0.000  0.000
       0.000  0.000  1.000  0.000  0.000
       0.000  0.000  0.000  1.000  0.000
       0.000  0.000  0.000  0.000  1.000
     SPIN  2
     eigenvalues:
       0.000  0.000  0.000  0.000  0.000
     eigenvectors (columns):
       1.000  0.000  0.000  0.000  0.000
       0.000  1.000  0.000  0.000  0.000
       0.000  0.000  1.000  0.000  0.000
       0.000  0.000  0.000  1.000  0.000
       0.000  0.000  0.000  0.000  1.000
     occupation matrix ns (before diag.):
       0.000  0.000  0.000  0.000  0.000
       0.000  0.000  0.000  0.000  0.000
       0.000  0.000  0.000  0.000  0.000
       0.000  0.000  0.000  0.000  0.000
       0.000  0.000  0.000  0.000  0.000
     ------------------------ ATOM    3 ------------------------
     Tr[ns(  3)] (up, down, total) =   5.00000  0.00000  5.00000
     Atomic magnetic moment for atom   3 =   5.00000
     SPIN  1
     eigenvalues:
       1.000  1.000  1.000  1.000  1.000
     eigenvectors (columns):
       1.000  0.000  0.000  0.000  0.000
       0.000  1.000  0.000  0.000  0.000
       0.000  0.000  1.000  0.000  0.000
       0.000  0.000  0.000  1.000  0.000
       0.000  0.000  0.000  0.000  1.000
     occupation matrix ns (before diag.):
       1.000  0.000  0.000  0.000  0.000
       0.000  1.000  0.000  0.000  0.000
       0.000  0.000  1.000  0.000  0.000
       0.000  0.000  0.000  1.000  0.000
       0.000  0.000  0.000  0.000  1.000
     SPIN  2
     eigenvalues:
       0.000  0.000  0.000  0.000  0.000
     eigenvectors (columns):
       1.000  0.000  0.000  0.000  0.000
       0.000  1.000  0.000  0.000  0.000
       0.000  0.000  1.000  0.000  0.000
       0.000  0.000  0.000  1.000  0.000
       0.000  0.000  0.000  0.000  1.000
     occupation matrix ns (before diag.):
       0.000  0.000  0.000  0.000  0.000
       0.000  0.000  0.000  0.000  0.000
       0.000  0.000  0.000  0.000  0.000
       0.000  0.000  0.000  0.000  0.000
       0.000  0.000  0.000  0.000  0.000
     ------------------------ ATOM    4 ------------------------
     Tr[ns(  4)] (up, down, total) =   5.00000  0.00000  5.00000
     Atomic magnetic moment for atom   4 =   5.00000
     SPIN  1
     eigenvalues:
       1.000  1.000  1.000  1.000  1.000
     eigenvectors (columns):
       1.000  0.000  0.000  0.000  0.000
       0.000  1.000  0.000  0.000  0.000
       0.000  0.000  1.000  0.000  0.000
       0.000  0.000  0.000  1.000  0.000
       0.000  0.000  0.000  0.000  1.000
     occupation matrix ns (before diag.):
       1.000  0.000  0.000  0.000  0.000
       0.000  1.000  0.000  0.000  0.000
       0.000  0.000  1.000  0.000  0.000
       0.000  0.000  0.000  1.000  0.000
       0.000  0.000  0.000  0.000  1.000
     SPIN  2
     eigenvalues:
       0.000  0.000  0.000  0.000  0.000
     eigenvectors (columns):
       1.000  0.000  0.000  0.000  0.000
       0.000  1.000  0.000  0.000  0.000
       0.000  0.000  1.000  0.000  0.000
       0.000  0.000  0.000  1.000  0.000
       0.000  0.000  0.000  0.000  1.000
     occupation matrix ns (before diag.):
       0.000  0.000  0.000  0.000  0.000
       0.000  0.000  0.000  0.000  0.000
       0.000  0.000  0.000  0.000  0.000
       0.000  0.000  0.000  0.000  0.000
       0.000  0.000  0.000  0.000  0.000
     ------------------------ ATOM    5 ------------------------
     Tr[ns(  5)] (up, down, total) =   5.00000  2.00000  7.00000
     Atomic magnetic moment for atom   5 =   3.00000
     SPIN  1
     eigenvalues:
       1.000  1.000  1.000  1.000  1.000
     eigenvectors (columns):
       1.000  0.000  0.000  0.000  0.000
       0.000  1.000  0.000  0.000  0.000
       0.000  0.000  1.000  0.000  0.000
       0.000  0.000  0.000  1.000  0.000
       0.000  0.000  0.000  0.000  1.000
     occupation matrix ns (before diag.):
       1.000  0.000  0.000  0.000  0.000
       0.000  1.000  0.000  0.000  0.000
       0.000  0.000  1.000  0.000  0.000
       0.000  0.000  0.000  1.000  0.000
       0.000  0.000  0.000  0.000  1.000
     SPIN  2
     eigenvalues:
       0.400  0.400  0.400  0.400  0.400
     eigenvectors (columns):
       1.000  0.000  0.000  0.000  0.000
       0.000  1.000  0.000  0.000  0.000
       0.000  0.000  1.000  0.000  0.000
       0.000  0.000  0.000  1.000  0.000
       0.000  0.000  0.000  0.000  1.000
     occupation matrix ns (before diag.):
       0.400  0.000  0.000  0.000  0.000
       0.000  0.400  0.000  0.000  0.000
       0.000  0.000  0.400  0.000  0.000
       0.000  0.000  0.000  0.400  0.000
       0.000  0.000  0.000  0.000  0.400

     Number of occupied Hubbard levels =   22.0000

     Atomic wfc used for Hubbard projectors are orthogonalized

     Starting wfcs are   92 randomized atomic wfcs
     Checking if some PAW data can be deallocated... 

     total cpu time spent up to now is       17.7 secs

     Self-consistent Calculation
[tb_dev] Currently allocated     1.08E+00 Mbytes, locked:    0 /   3
[tb_pin] Currently allocated     0.00E+00 Mbytes, locked:    0 /   0

     iteration #  1     ecut=    65.00 Ry     beta= 0.40
     Davidson diagonalization with overlap

---- Real-time Memory Report at c_bands before calling an iterative solver
          9753 MiB given to the printing process from OS
             0 MiB allocation reported by mallinfo(arena+hblkhd)
        414711 MiB available memory on the node where the printing process lives
     GPU memory used/free/total (MiB): 3406 / 61538 / 64944
------------------
     ethr =  1.00E-02,  avg # of iterations =  3.1

     =================== HUBBARD OCCUPATIONS ===================
     ------------------------ ATOM    2 ------------------------
     Tr[ns(  2)] (up, down, total) =   3.80461  0.32073  4.12535
     Atomic magnetic moment for atom   2 =   3.48388
     SPIN  1
     eigenvalues:
       0.383  0.464  0.981  0.983  0.993
     eigenvectors (columns):
       0.000 -0.006 -0.006 -0.633  0.774
      -0.389  0.707 -0.312 -0.389 -0.316
       0.685  0.402  0.532 -0.232 -0.183
       0.537  0.286 -0.679  0.319  0.258
      -0.303  0.507  0.398  0.540  0.449
     occupation matrix ns (before diag.):
       0.989 -0.000 -0.000  0.003  0.005
      -0.000  0.634  0.013  0.019 -0.258
      -0.000  0.013  0.618 -0.280  0.018
       0.003  0.019 -0.280  0.767  0.024
       0.005 -0.258  0.018  0.024  0.796
     SPIN  2
     eigenvalues:
       0.034  0.037  0.038  0.106  0.107
     eigenvectors (columns):
       1.000  0.002  0.001  0.011 -0.000
       0.006  0.345  0.558 -0.658 -0.369
       0.005 -0.587  0.328 -0.384  0.633
       0.003  0.633 -0.385 -0.325  0.589
       0.008 -0.370 -0.658 -0.560 -0.342
     occupation matrix ns (before diag.):
       0.034 -0.001 -0.000 -0.000 -0.000
      -0.001  0.076  0.001 -0.001  0.034
      -0.000  0.001  0.075  0.034 -0.001
      -0.000 -0.001  0.034  0.068 -0.001
      -0.000  0.034 -0.001 -0.001  0.067
     ------------------------ ATOM    3 ------------------------
     Tr[ns(  3)] (up, down, total) =   3.83614  0.33104  4.16718
     Atomic magnetic moment for atom   3 =   3.50509
     SPIN  1
     eigenvalues:
       0.399  0.481  0.981  0.982  0.993
     eigenvectors (columns):
      -0.006 -0.002  0.028  0.683 -0.730
      -0.774 -0.083 -0.627  0.036  0.016
      -0.089  0.807 -0.032 -0.424 -0.400
      -0.050  0.582  0.032  0.592  0.554
      -0.625 -0.057  0.777 -0.037 -0.000
     occupation matrix ns (before diag.):
       0.988 -0.003  0.004 -0.004 -0.002
      -0.003  0.629 -0.006  0.002 -0.284
       0.004 -0.006  0.653 -0.240 -0.009
      -0.004  0.002 -0.240  0.814 -0.001
      -0.002 -0.284 -0.009 -0.001  0.752
     SPIN  2
     eigenvalues:
       0.035  0.038  0.039  0.109  0.110
     eigenvectors (columns):
       0.999  0.006 -0.048  0.004  0.010
       0.001  0.630  0.265  0.243  0.688
      -0.030  0.251 -0.596 -0.719  0.254
       0.036 -0.281  0.708 -0.615  0.202
      -0.016 -0.679 -0.267  0.215  0.649
     occupation matrix ns (before diag.):
       0.035  0.001  0.000 -0.000  0.001
       0.001  0.076  0.000 -0.000  0.036
       0.000  0.000  0.080  0.034  0.001
      -0.000 -0.000  0.034  0.068 -0.000
       0.001  0.036  0.001 -0.000  0.072
     ------------------------ ATOM    4 ------------------------
     Tr[ns(  4)] (up, down, total) =   3.83936  0.33094  4.17030
     Atomic magnetic moment for atom   4 =   3.50843
     SPIN  1
     eigenvalues:
       0.399  0.484  0.981  0.982  0.993
     eigenvectors (columns):
       0.006 -0.002  0.042  0.681 -0.731
       0.459  0.660 -0.348 -0.344 -0.339
       0.629 -0.471 -0.522  0.254  0.213
       0.518 -0.339  0.650 -0.343 -0.278
       0.354  0.477  0.428  0.485  0.478
     occupation matrix ns (before diag.):
       0.988  0.002 -0.004 -0.000 -0.004
       0.002  0.643 -0.014 -0.026 -0.253
      -0.004 -0.014  0.641 -0.270 -0.017
      -0.000 -0.026 -0.270  0.769 -0.028
      -0.004 -0.253 -0.017 -0.028  0.798
     SPIN  2
     eigenvalues:
       0.035  0.038  0.039  0.109  0.110
     eigenvectors (columns):
       0.999 -0.011  0.043  0.004  0.010
      -0.026 -0.540  0.372 -0.493  0.571
       0.011 -0.409 -0.536  0.577  0.461
      -0.027  0.432  0.597  0.502  0.452
       0.023  0.594 -0.465 -0.416  0.507
     occupation matrix ns (before diag.):
       0.035  0.000  0.000  0.001  0.000
       0.000  0.079 -0.001  0.001  0.035
       0.000 -0.001  0.077  0.035  0.000
       0.001  0.001  0.035  0.071  0.001
       0.000  0.035  0.000  0.001  0.069
     ------------------------ ATOM    5 ------------------------
     Tr[ns(  5)] (up, down, total) =   4.95800  0.30921  5.26721
     Atomic magnetic moment for atom   5 =   4.64879
     SPIN  1
     eigenvalues:
       0.988  0.989  0.991  0.995  0.995
     eigenvectors (columns):
      -0.273  0.004  0.944 -0.185  0.001
       0.568 -0.303  0.038 -0.648  0.405
       0.337  0.510  0.022 -0.377 -0.696
      -0.356 -0.694 -0.162 -0.319 -0.514
      -0.602  0.408 -0.284 -0.549  0.297
     occupation matrix ns (before diag.):
       0.991  0.001  0.000  0.000  0.000
       0.001  0.992 -0.000 -0.000  0.003
       0.000 -0.000  0.993  0.003 -0.000
       0.000 -0.000  0.003  0.991  0.000
       0.000  0.003 -0.000  0.000  0.991
     SPIN  2
     eigenvalues:
       0.031  0.035  0.035  0.100  0.108
     eigenvectors (columns):
       0.879  0.023 -0.475  0.000 -0.016
      -0.272  0.368 -0.506  0.359  0.637
      -0.158 -0.575 -0.333 -0.636  0.359
       0.179  0.616  0.349 -0.596  0.334
       0.310 -0.392  0.534  0.334  0.595
     occupation matrix ns (before diag.):
       0.032  0.000  0.000 -0.001 -0.002
       0.000  0.073  0.002  0.002  0.036
       0.000  0.002  0.071  0.034  0.002
      -0.001  0.002  0.034  0.066  0.001
      -0.002  0.036  0.002  0.001  0.068

     Number of occupied Hubbard levels =   17.7300

     HUBBARD ENERGY =    0.4928  (Ry)

     total cpu time spent up to now is       42.5 secs

     total energy              =   -1368.11948054 Ry
     estimated scf accuracy    <       9.92024149 Ry

     total magnetization       =    15.00 Bohr mag/cell
     absolute magnetization    =    15.61 Bohr mag/cell
[tb_dev] Currently allocated     0.00E+00 Mbytes, locked:    0 /   0
[tb_pin] Currently allocated     0.00E+00 Mbytes, locked:    0 /   0

     iteration #  2     ecut=    65.00 Ry     beta= 0.40
     Davidson diagonalization with overlap

---- Real-time Memory Report at c_bands before calling an iterative solver
          9832 MiB given to the printing process from OS
             0 MiB allocation reported by mallinfo(arena+hblkhd)
        414635 MiB available memory on the node where the printing process lives
     GPU memory used/free/total (MiB): 3514 / 61430 / 64944
------------------
     ethr =  8.34E-03,  avg # of iterations =  3.5

     =================== HUBBARD OCCUPATIONS ===================
     ------------------------ ATOM    2 ------------------------
     Tr[ns(  2)] (up, down, total) =   4.58315  1.49568  6.07883
     Atomic magnetic moment for atom   2 =   3.08747
     SPIN  1
     eigenvalues:
       0.783  0.816  0.993  0.995  0.995
     eigenvectors (columns):
      -0.000  0.020 -0.928  0.371  0.025
       0.385 -0.694 -0.206 -0.498  0.283
      -0.671 -0.398 -0.119 -0.237 -0.566
      -0.550 -0.297  0.142  0.325  0.695
       0.314 -0.521  0.248  0.673 -0.340
     occupation matrix ns (before diag.):
       0.993  0.002  0.001  0.001  0.002
       0.002  0.878  0.005  0.008 -0.090
       0.001  0.005  0.871 -0.099  0.008
       0.001  0.008 -0.099  0.915  0.009
       0.002 -0.090  0.008  0.009  0.926
     SPIN  2
     eigenvalues:
       0.199  0.211  0.229  0.416  0.440
     eigenvectors (columns):
       0.838  0.016 -0.545 -0.002  0.028
       0.296 -0.326  0.480 -0.390  0.651
       0.158  0.574  0.278  0.641  0.396
      -0.203 -0.654 -0.315  0.565  0.335
      -0.380  0.369 -0.544 -0.342  0.553
     occupation matrix ns (before diag.):
       0.208 -0.003 -0.002  0.007  0.013
      -0.003  0.343  0.010  0.003  0.107
      -0.002  0.010  0.332  0.104  0.003
       0.007  0.003  0.104  0.304  0.005
       0.013  0.107  0.003  0.005  0.309
     ------------------------ ATOM    3 ------------------------
     Tr[ns(  3)] (up, down, total) =   4.58300  1.46944  6.05244
     Atomic magnetic moment for atom   3 =   3.11356
     SPIN  1
     eigenvalues:
       0.784  0.816  0.993  0.995  0.996
     eigenvectors (columns):
       0.009 -0.010  0.881  0.086  0.466
       0.757  0.107 -0.035 -0.621  0.169
       0.113 -0.790 -0.292  0.155  0.504
       0.071 -0.599  0.369 -0.220 -0.672
       0.640  0.079  0.040  0.731 -0.221
     occupation matrix ns (before diag.):
       0.994 -0.001 -0.001 -0.002 -0.001
      -0.001  0.872 -0.003  0.000 -0.104
      -0.001 -0.003  0.880 -0.087 -0.004
      -0.002  0.000 -0.087  0.930 -0.001
      -0.001 -0.104 -0.004 -0.001  0.907
     SPIN  2
     eigenvalues:
       0.191  0.201  0.221  0.417  0.440
     eigenvectors (columns):
       0.753  0.143  0.642 -0.016 -0.035
       0.171 -0.646 -0.076 -0.740 -0.024
      -0.369 -0.158  0.509 -0.024  0.761
       0.478  0.179 -0.566 -0.008  0.648
      -0.199  0.711  0.057 -0.672 -0.008
     occupation matrix ns (before diag.):
       0.204  0.001  0.003 -0.016  0.005
       0.001  0.319 -0.001 -0.002  0.107
       0.003 -0.001  0.343  0.114  0.002
      -0.016 -0.002  0.114  0.305  0.000
       0.005  0.107  0.002  0.000  0.298
     ------------------------ ATOM    4 ------------------------
     Tr[ns(  4)] (up, down, total) =   4.58146  1.46240  6.04385
     Atomic magnetic moment for atom   4 =   3.11906
     SPIN  1
     eigenvalues:
       0.783  0.815  0.993  0.995  0.996
     eigenvectors (columns):
       0.009  0.010 -0.879  0.071  0.471
       0.473  0.633  0.273 -0.191  0.515
       0.601 -0.484 -0.115 -0.613 -0.123
       0.519 -0.367  0.150  0.738  0.168
       0.381  0.480 -0.342  0.196 -0.685
     occupation matrix ns (before diag.):
       0.994 -0.001 -0.000  0.000 -0.002
      -0.001  0.876 -0.005 -0.010 -0.093
      -0.000 -0.005  0.876 -0.098 -0.007
       0.000 -0.010 -0.098  0.913 -0.010
      -0.002 -0.093 -0.007 -0.010  0.923
     SPIN  2
     eigenvalues:
       0.190  0.200  0.219  0.416  0.438
     eigenvectors (columns):
      -0.755 -0.120 -0.644  0.016 -0.034
       0.251  0.451 -0.403  0.391  0.647
      -0.318  0.492  0.318  0.628 -0.402
       0.396 -0.539 -0.331  0.577 -0.333
      -0.332 -0.500  0.461  0.345  0.555
     occupation matrix ns (before diag.):
       0.202  0.003 -0.001  0.012 -0.011
       0.003  0.335 -0.010 -0.001  0.112
      -0.001 -0.010  0.325  0.109 -0.004
       0.012 -0.001  0.109  0.299 -0.003
      -0.011  0.112 -0.004 -0.003  0.302
     ------------------------ ATOM    5 ------------------------
     Tr[ns(  5)] (up, down, total) =   4.95874  4.89935  9.85808
     Atomic magnetic moment for atom   5 =   0.05939
     SPIN  1
     eigenvalues:
       0.989  0.990  0.993  0.994  0.994
     eigenvectors (columns):
       0.014 -0.000  0.994  0.002  0.104
       0.755 -0.486  0.031  0.166 -0.407
       0.457  0.804  0.019 -0.302 -0.232
       0.242  0.294 -0.050  0.819  0.427
       0.403 -0.178 -0.085 -0.460  0.766
     occupation matrix ns (before diag.):
       0.993 -0.000 -0.000  0.000  0.000
      -0.000  0.990 -0.000 -0.000 -0.002
      -0.000 -0.000  0.990 -0.001 -0.000
       0.000 -0.000 -0.001  0.993 -0.000
       0.000 -0.002 -0.000 -0.000  0.993
     SPIN  2
     eigenvalues:
       0.953  0.962  0.994  0.995  0.995
     eigenvectors (columns):
       0.019  0.000  0.845  0.000 -0.535
      -0.676 -0.404  0.301 -0.293  0.451
      -0.392  0.696  0.171  0.517  0.256
      -0.312  0.514 -0.200 -0.700 -0.328
      -0.540 -0.297 -0.356  0.396 -0.581
     occupation matrix ns (before diag.):
       0.994  0.000  0.000  0.000  0.001
       0.000  0.971 -0.002 -0.002 -0.019
       0.000 -0.002  0.973 -0.017 -0.002
       0.000 -0.002 -0.017  0.982 -0.002
       0.001 -0.019 -0.002 -0.002  0.980

     Number of occupied Hubbard levels =   28.0332

     HUBBARD ENERGY =    0.6720  (Ry)

     total cpu time spent up to now is       71.7 secs

     total energy              =   -1368.84845714 Ry
     estimated scf accuracy    <      22.15104537 Ry

     total magnetization       =    11.51 Bohr mag/cell
     absolute magnetization    =    11.68 Bohr mag/cell
[tb_dev] Currently allocated     0.00E+00 Mbytes, locked:    0 /   0
[tb_pin] Currently allocated     0.00E+00 Mbytes, locked:    0 /   0

     iteration #  3     ecut=    65.00 Ry     beta= 0.40
     Davidson diagonalization with overlap

---- Real-time Memory Report at c_bands before calling an iterative solver
          9854 MiB given to the printing process from OS
             0 MiB allocation reported by mallinfo(arena+hblkhd)
        414610 MiB available memory on the node where the printing process lives
     GPU memory used/free/total (MiB): 3514 / 61430 / 64944
------------------
     ethr =  8.34E-03,  avg # of iterations =  2.0

     =================== HUBBARD OCCUPATIONS ===================
     ------------------------ ATOM    2 ------------------------
     Tr[ns(  2)] (up, down, total) =   4.25008  0.77786  5.02793
     Atomic magnetic moment for atom   2 =   3.47222
     SPIN  1
     eigenvalues:
       0.565  0.697  0.995  0.995  0.998
     eigenvectors (columns):
       0.000 -0.009 -0.767  0.007  0.642
      -0.385 -0.706 -0.321 -0.314 -0.389
       0.672 -0.404 -0.179  0.550 -0.225
       0.550 -0.287  0.256 -0.674  0.309
      -0.313 -0.505  0.460  0.382  0.539
     occupation matrix ns (before diag.):
       0.996 -0.003 -0.002 -0.000  0.000
      -0.003  0.783  0.026  0.030 -0.158
      -0.002  0.026  0.752 -0.194  0.029
      -0.000  0.030 -0.194  0.841  0.031
       0.000 -0.158  0.029  0.031  0.878
     SPIN  2
     eigenvalues:
       0.084  0.088  0.101  0.240  0.266
     eigenvectors (columns):
      -0.891 -0.004  0.454  0.006  0.000
      -0.241 -0.339 -0.486  0.674  0.369
      -0.144  0.581 -0.282  0.389 -0.641
       0.181 -0.640  0.346  0.312 -0.583
       0.307  0.372  0.599  0.545  0.335
     occupation matrix ns (before diag.):
       0.087 -0.003 -0.002  0.003  0.005
      -0.003  0.184 -0.001 -0.008  0.074
      -0.002 -0.001  0.185  0.084 -0.008
       0.003 -0.008  0.084  0.165 -0.006
       0.005  0.074 -0.008 -0.006  0.157
     ------------------------ ATOM    3 ------------------------
     Tr[ns(  3)] (up, down, total) =   4.24682  0.79078  5.03760
     Atomic magnetic moment for atom   3 =   3.45603
     SPIN  1
     eigenvalues:
       0.573  0.685  0.995  0.995  0.998
     eigenvectors (columns):
       0.006 -0.014 -0.722 -0.186 -0.666
       0.762 -0.073  0.157 -0.624  0.012
       0.077  0.806  0.373  0.084 -0.445
       0.043  0.585 -0.528 -0.137  0.599
       0.642 -0.049 -0.189  0.741  0.004
     occupation matrix ns (before diag.):
       0.996 -0.002  0.005  0.001 -0.002
      -0.002  0.749 -0.007 -0.000 -0.207
       0.005 -0.007  0.792 -0.148 -0.009
       0.001 -0.000 -0.148  0.889 -0.003
      -0.002 -0.207 -0.009 -0.003  0.820
     SPIN  2
     eigenvalues:
       0.085  0.089  0.102  0.245  0.270
     eigenvectors (columns):
       0.836  0.236  0.495 -0.017  0.008
      -0.169  0.657 -0.042 -0.078  0.729
      -0.300 -0.041  0.553  0.772  0.082
       0.388  0.072 -0.669  0.628  0.053
       0.178 -0.711  0.025 -0.059  0.677
     occupation matrix ns (before diag.):
       0.089  0.002  0.003 -0.007  0.001
       0.002  0.186  0.001  0.000  0.091
       0.003  0.001  0.187  0.072  0.003
      -0.007  0.000  0.072  0.156  0.000
       0.001  0.091  0.003  0.000  0.172
     ------------------------ ATOM    4 ------------------------
     Tr[ns(  4)] (up, down, total) =   4.25525  0.79149  5.04674
     Atomic magnetic moment for atom   4 =   3.46377
     SPIN  1
     eigenvalues:
       0.574  0.693  0.995  0.995  0.998
     eigenvectors (columns):
       0.006  0.015 -0.721 -0.188  0.666
       0.444 -0.664  0.402 -0.237  0.379
       0.624  0.463 -0.049 -0.583 -0.233
       0.535  0.334  0.100  0.710  0.297
       0.357 -0.483 -0.553  0.253 -0.520
     occupation matrix ns (before diag.):
       0.996  0.003 -0.004 -0.002 -0.000
       0.003  0.779 -0.024 -0.033 -0.164
      -0.004 -0.024  0.767 -0.187 -0.026
      -0.002 -0.033 -0.187  0.841 -0.032
      -0.000 -0.164 -0.026 -0.032  0.872
     SPIN  2
     eigenvalues:
       0.085  0.089  0.102  0.245  0.271
     eigenvectors (columns):
       0.834  0.241  0.496  0.017  0.008
      -0.347  0.291  0.457 -0.632  0.433
       0.001  0.590 -0.313  0.451  0.593
      -0.038 -0.651  0.359  0.365  0.560
       0.427 -0.293 -0.565 -0.514  0.384
     occupation matrix ns (before diag.):
       0.089  0.003  0.000  0.004 -0.006
       0.003  0.188  0.000  0.010  0.078
       0.000  0.000  0.186  0.085  0.007
       0.004  0.010  0.085  0.168  0.007
      -0.006  0.078  0.007  0.007  0.161
     ------------------------ ATOM    5 ------------------------
     Tr[ns(  5)] (up, down, total) =   4.98230  0.52815  5.51046
     Atomic magnetic moment for atom   5 =   4.45415
     SPIN  1
     eigenvalues:
       0.993  0.994  0.996  0.999  1.000
     eigenvectors (columns):
      -0.034 -0.009  0.994  0.003 -0.101
      -0.744  0.430  0.019  0.307  0.407
      -0.480 -0.655  0.001 -0.540  0.221
       0.255  0.524  0.059 -0.688  0.428
       0.386 -0.333  0.087  0.375  0.770
     occupation matrix ns (before diag.):
       0.996 -0.000 -0.000 -0.000 -0.000
      -0.000  0.995 -0.000  0.000  0.003
      -0.000 -0.000  0.995  0.003  0.000
      -0.000  0.000  0.003  0.997  0.001
      -0.000  0.003  0.000  0.001  0.998
     SPIN  2
     eigenvalues:
       0.051  0.055  0.056  0.179  0.187
     eigenvectors (columns):
       0.876  0.007 -0.483  0.000 -0.015
      -0.275  0.348 -0.513  0.360  0.641
      -0.160 -0.580 -0.310 -0.643  0.358
       0.182  0.633  0.330 -0.591  0.330
       0.314 -0.378  0.547  0.329  0.593
     occupation matrix ns (before diag.):
       0.052  0.000  0.000 -0.002 -0.003
       0.000  0.125  0.002  0.001  0.065
       0.000  0.002  0.123  0.063  0.002
      -0.002  0.001  0.063  0.113  0.002
      -0.003  0.065  0.002  0.002  0.115

     Number of occupied Hubbard levels =   20.6227

     HUBBARD ENERGY =    0.7028  (Ry)

     total cpu time spent up to now is       94.4 secs

     total energy              =   -1371.38653139 Ry
     estimated scf accuracy    <       2.02617905 Ry

     total magnetization       =    15.00 Bohr mag/cell
     absolute magnetization    =    15.84 Bohr mag/cell
[...]
     1.0000   1.0000   1.0000   1.0000   1.0000   1.0000   1.0000   1.0000
     1.0000   1.0000   1.0000   1.0000   1.0000   1.0000   1.0000   1.0000
     1.0000   1.0000   1.0000   1.0000   1.0000   1.0000   1.0000   1.0000
     1.0000   1.0000   1.0000   1.0000   1.0000   1.0000   1.0000   1.0000
     1.0000   1.0000   1.0000   1.0000   1.0000   0.0000   0.0000   0.0000
     0.0000   0.0000   0.0000   0.0000   0.0000   0.0000   0.0000   0.0000
     0.0000   0.0000   0.0000   0.0000   0.0000   0.0000   0.0000   0.0000

          k = 0.4442-0.3817-0.3496 ( 11120 PWs)   bands (ev):

   -89.0636 -72.8408 -72.7944 -72.7926 -52.8502 -52.4769 -52.2651 -41.8948
   -41.8264 -41.7979 -41.7735 -41.7353 -41.7216 -41.6197 -41.5758 -41.5723
   -22.7301 -13.2366 -13.0205 -12.4469 -12.1043 -12.0923 -11.7750 -11.7492
   -11.7361  -6.3240  -6.3026  -6.2779   0.1472   0.1871   0.3265   0.4280
     0.4858   0.5170   0.8546   0.9708   1.1146   1.1654   1.3485   1.4581
     1.5738   2.0331   2.1427   2.2106   2.3367   2.5824   2.9644   3.1202
     3.3104   3.6283   3.6858   3.9600   4.3506   6.9166   7.1147   7.3964
     7.9697   8.0737   8.4184   8.5777   8.6110   8.6329   8.6943   8.7677
     8.8597   9.0303   9.1992   9.2137   9.4459   9.5207   9.7675   9.8296

     occupation numbers 
     1.0000   1.0000   1.0000   1.0000   1.0000   1.0000   1.0000   1.0000
     1.0000   1.0000   1.0000   1.0000   1.0000   1.0000   1.0000   1.0000
     1.0000   1.0000   1.0000   1.0000   1.0000   1.0000   1.0000   1.0000
     1.0000   1.0000   1.0000   1.0000   1.0000   1.0000   1.0000   1.0000
     1.0000   1.0000   1.0000   1.0000   1.0000   1.0000   1.0000   1.0000
     1.0000   1.0000   1.0000   1.0000   1.0000   1.0000   1.0000   1.0000
     1.0000   1.0000   1.0000   1.0000   1.0000   0.0000   0.0000   0.0000
     0.0000   0.0000   0.0000   0.0000   0.0000   0.0000   0.0000   0.0000
     0.0000   0.0000   0.0000   0.0000   0.0000   0.0000   0.0000   0.0000

          k = 0.4440-0.3818-0.2211 ( 11128 PWs)   bands (ev):

   -89.0636 -72.8408 -72.7944 -72.7926 -52.8502 -52.4769 -52.2651 -41.8948
   -41.8264 -41.7979 -41.7735 -41.7353 -41.7216 -41.6197 -41.5758 -41.5723
   -22.7302 -13.2396 -13.0167 -12.4444 -12.1059 -12.0939 -11.7696 -11.7482
   -11.7422  -6.3251  -6.2997  -6.2806   0.1374   0.1836   0.3598   0.4083
     0.4855   0.5175   0.8503   0.9823   1.1114   1.1649   1.3480   1.4550
     1.5663   2.0426   2.1327   2.2292   2.3362   2.5983   2.9630   3.1151
     3.3115   3.6099   3.6651   3.9453   4.3628   6.9206   7.1118   7.3961
     7.9688   8.0748   8.4201   8.5849   8.6102   8.6287   8.6913   8.7675
     8.8751   9.0346   9.2234   9.2389   9.4756   9.5382   9.7613   9.8420

     occupation numbers 
     1.0000   1.0000   1.0000   1.0000   1.0000   1.0000   1.0000   1.0000
     1.0000   1.0000   1.0000   1.0000   1.0000   1.0000   1.0000   1.0000
     1.0000   1.0000   1.0000   1.0000   1.0000   1.0000   1.0000   1.0000
     1.0000   1.0000   1.0000   1.0000   1.0000   1.0000   1.0000   1.0000
     1.0000   1.0000   1.0000   1.0000   1.0000   1.0000   1.0000   1.0000
     1.0000   1.0000   1.0000   1.0000   1.0000   1.0000   1.0000   1.0000
     1.0000   1.0000   1.0000   1.0000   1.0000   0.0000   0.0000   0.0000
     0.0000   0.0000   0.0000   0.0000   0.0000   0.0000   0.0000   0.0000
     0.0000   0.0000   0.0000   0.0000   0.0000   0.0000   0.0000   0.0000

     the Fermi energy is     6.0161 ev

     WARNING: integrated charge=   119.00797445, expected=   119.00000000

!    total energy              =   -1371.71937509 Ry
     estimated scf accuracy    <          1.4E-09 Ry
     smearing contrib. (-TS)   =       0.00013518 Ry
     internal energy E=F+TS    =   -1371.71951027 Ry

     The total energy is F=E-TS. E is the sum of the following terms:
     one-electron contribution =   -1374.44195058 Ry
     hartree contribution      =     726.96755745 Ry
     xc contribution           =    -180.81581392 Ry
     ewald contribution        =    -417.35617296 Ry
     Hubbard energy            =       0.72247059 Ry
     one-center paw contrib.   =    -126.79560085 Ry
      -> PAW hartree energy AE =     247.97749233 Ry
      -> PAW hartree energy PS =    -246.78159012 Ry
      -> PAW xc energy AE      =    -194.40877518 Ry
      -> PAW xc energy PS      =      66.41727212 Ry
      -> total E_H with PAW    =     728.16345966 Ry
      -> total E_XC with PAW   =    -308.80731698 Ry

     total magnetization       =    13.01 Bohr mag/cell
     absolute magnetization    =    14.53 Bohr mag/cell

     convergence has been achieved in 117 iterations

     negative rho (up, down):  0.000E+00 1.160E-04
     force_hub    :     71.70s CPU     72.48s WALL (       2 calls)
     dndtau       :     62.30s CPU     63.05s WALL (   44304 calls)
     dprojdtau    :     25.82s CPU     26.15s WALL (  177216 calls)
     calc_doverla :     19.30s CPU     19.54s WALL (   44304 calls)
     matel_dSdtau :     24.15s CPU     24.44s WALL (   88608 calls)

     Forces acting on atoms (cartesian axes, Ry/au):

     atom    1 type  2   force =     0.00000000    0.00000000    0.00000000
     atom    2 type  3   force =     0.00000000    0.00000000    0.00000000
     atom    3 type  3   force =     0.00000000    0.00000000    0.00000000
     atom    4 type  3   force =     0.00000000    0.00000000    0.00000000
     atom    5 type  1   force =     0.00000000    0.00000000    0.00000000
     atom    6 type  4   force =    -0.00425590   -0.00245792    0.00388250
     atom    7 type  4   force =    -0.00286115    0.00135992    0.00001021
     atom    8 type  4   force =    -0.00024941   -0.00315464    0.00000802
     atom    9 type  4   force =     0.00050809    0.00029413   -0.00071330
     atom   10 type  4   force =    -0.00050809   -0.00029413    0.00071330
     atom   11 type  4   force =     0.00024941    0.00315464   -0.00000802
     atom   12 type  4   force =     0.00286115   -0.00135992   -0.00001021
     atom   13 type  4   force =     0.00425590    0.00245792   -0.00388250
     The non-local contrib.  to forces
     atom    1 type  2   force =     0.00000000    0.00000000    0.00000000
     atom    2 type  3   force =     0.00000000    0.00000000    0.00000000
     atom    3 type  3   force =     0.00000000    0.00000000    0.00000000
     atom    4 type  3   force =     0.00000000    0.00000000    0.00000000
     atom    5 type  1   force =     0.00000000    0.00000000    0.00000000
     atom    6 type  4   force =     0.06221099    0.03598279    1.14033643
     atom    7 type  4   force =    -0.05445566   -0.09332186    1.05805082
     atom    8 type  4   force =    -0.10805383   -0.00063318    1.05805636
     atom    9 type  4   force =     0.04151373    0.02400695    1.14565977
     atom   10 type  4   force =    -0.04151373   -0.02400695   -1.14565977
     atom   11 type  4   force =     0.10805383    0.00063318   -1.05805636
     atom   12 type  4   force =     0.05445566    0.09332186   -1.05805082
     atom   13 type  4   force =    -0.06221099   -0.03598279   -1.14033643
     The ionic contribution  to forces
     atom    1 type  2   force =     0.00000000    0.00000000    0.00000000
     atom    2 type  3   force =    -0.00000000    0.00000000   -0.00000000
     atom    3 type  3   force =     0.00000000   -0.00000000    0.00000000
     atom    4 type  3   force =     0.00000000   -0.00000000   -0.00000000
     atom    5 type  1   force =     0.00000000    0.00000000   -0.00000000
     atom    6 type  4   force =     0.19380274    0.11205723  -27.93066144
     atom    7 type  4   force =     1.25837668   -0.51092643  -26.51847083
     atom    8 type  4   force =     0.18497215    1.34544693  -26.51850456
     atom    9 type  4   force =    -1.08360474   -0.62662775  -26.51056431
     atom   10 type  4   force =     1.08360474    0.62662775   26.51056431
     atom   11 type  4   force =    -0.18497215   -1.34544693   26.51850456
     atom   12 type  4   force =    -1.25837668    0.51092643   26.51847083
     atom   13 type  4   force =    -0.19380274   -0.11205723   27.93066144
     The local contribution  to forces
     atom    1 type  2   force =    -0.00000000   -0.00000000   -0.00000000
     atom    2 type  3   force =    -0.00000000   -0.00000000    0.00000000
     atom    3 type  3   force =     0.00000000   -0.00000000   -0.00000000
     atom    4 type  3   force =     0.00000000    0.00000000    0.00000000
     atom    5 type  1   force =     0.00000000   -0.00000000    0.00000000
     atom    6 type  4   force =    -0.26026456   -0.15049491   26.80044070
     atom    7 type  4   force =    -1.20709725    0.60592439   25.46611863
     atom    8 type  4   force =    -0.07705076   -1.34839919   25.46614482
     atom    9 type  4   force =     1.04299646    0.60314464   25.37059369
     atom   10 type  4   force =    -1.04299646   -0.60314464  -25.37059369
     atom   11 type  4   force =     0.07705076    1.34839919  -25.46614482
     atom   12 type  4   force =     1.20709725   -0.60592439  -25.46611863
     atom   13 type  4   force =     0.26026456    0.15049491  -26.80044070
     The core correction contribution to forces
     atom    1 type  2   force =    -0.00000000   -0.00000000   -0.00000000
     atom    2 type  3   force =    -0.00000000   -0.00000000    0.00000000
     atom    3 type  3   force =    -0.00000000    0.00000000    0.00000000
     atom    4 type  3   force =    -0.00000000    0.00000000    0.00000000
     atom    5 type  1   force =     0.00000000   -0.00000000    0.00000000
     atom    6 type  4   force =    -0.00056403   -0.00032624   -0.01033014
     atom    7 type  4   force =     0.00044674    0.00077109   -0.00965856
     atom    8 type  4   force =     0.00089119    0.00000245   -0.00965868
     atom    9 type  4   force =    -0.00034487   -0.00019944   -0.01075859
     atom   10 type  4   force =     0.00034487    0.00019944    0.01075859
     atom   11 type  4   force =    -0.00089119   -0.00000245    0.00965868
     atom   12 type  4   force =    -0.00044674   -0.00077109    0.00965856
     atom   13 type  4   force =     0.00056403    0.00032624    0.01033014
     The Hubbard contrib.    to forces
     atom    1 type  2   force =     0.00000000    0.00000000    0.00000000
     atom    2 type  3   force =     0.00000000    0.00000000    0.00000000
     atom    3 type  3   force =     0.00000000    0.00000000    0.00000000
     atom    4 type  3   force =     0.00000000    0.00000000    0.00000000
     atom    5 type  1   force =     0.00000000    0.00000000    0.00000000
     atom    6 type  4   force =     0.00055466    0.00032090    0.00409671
     atom    7 type  4   force =    -0.00012883   -0.00108189    0.00397047
     atom    8 type  4   force =    -0.00100202    0.00042824    0.00397032
     atom    9 type  4   force =    -0.00005484   -0.00003171    0.00435445
     atom   10 type  4   force =     0.00005484    0.00003171   -0.00435445
     atom   11 type  4   force =     0.00100202   -0.00042824   -0.00397032
     atom   12 type  4   force =     0.00012883    0.00108189   -0.00397047
     atom   13 type  4   force =    -0.00055466   -0.00032090   -0.00409671
     The SCF correction term to forces
     atom    1 type  2   force =     0.00000000    0.00000000   -0.00000000
     atom    2 type  3   force =    -0.00000000    0.00000000    0.00000000
     atom    3 type  3   force =    -0.00000000   -0.00000000    0.00000000
     atom    4 type  3   force =    -0.00000000   -0.00000000    0.00000000
     atom    5 type  1   force =    -0.00000000    0.00000000    0.00000000
     atom    6 type  4   force =     0.00000430    0.00000231    0.00000024
     atom    7 type  4   force =    -0.00000283   -0.00000538   -0.00000032
     atom    8 type  4   force =    -0.00000614    0.00000012   -0.00000023
     atom    9 type  4   force =     0.00000234    0.00000145    0.00000169
     atom   10 type  4   force =    -0.00000234   -0.00000145   -0.00000169
     atom   11 type  4   force =     0.00000614   -0.00000012    0.00000023
     atom   12 type  4   force =     0.00000283    0.00000538    0.00000032
     atom   13 type  4   force =    -0.00000430   -0.00000231   -0.00000024

     Total force =     0.010966     Total SCF correction =     0.000015


     Computing stress (Cartesian axis) and pressure


     negative rho (up, down):  0.000E+00 1.160E-04
     stres_hub    :    157.28s CPU    158.69s WALL (       2 calls)
     dprojdepsilo :    121.92s CPU    123.16s WALL (   10224 calls)
     dprojdeps1   :     45.50s CPU     45.74s WALL (   10224 calls)
     dprojdeps2   :     40.91s CPU     41.42s WALL (   10224 calls)
     dprojdeps3   :     35.45s CPU     35.97s WALL (   10224 calls)
          total   stress  (Ry/bohr**3)                   (kbar)     P=        4.70
   0.00005378   0.00000500   0.00001900            7.91        0.74        2.80
   0.00000500   0.00004803   0.00001097            0.74        7.06        1.61
   0.00001900   0.00001097  -0.00000601            2.80        1.61       -0.88

     kinetic stress (kbar)  25050.09    -47.67     55.54
                              -47.67  25104.86     32.12
                               55.54     32.12  25589.10

     local   stress (kbar)-110403.28     71.86   -315.49
                               71.86-110485.79   -182.50
                             -315.49   -182.50  97856.66

     nonloc. stress (kbar)  10456.96    -47.61     40.66
                              -47.61  10511.65     23.53
                               40.66     23.53  10604.38

     hartree stress (kbar)  60446.25    -40.63    174.98
                              -40.63  60492.94    101.21
                              174.98    101.21 -35843.60

     exc-cor stress (kbar)  -4306.91     -0.41      0.38
                               -0.41  -4306.44      0.22
                                0.38      0.22  -4316.05

     corecor stress (kbar)  -2228.32      0.69     -0.54
                                0.69  -2229.11     -0.31
                               -0.54     -0.31  -2230.66

     ewald   stress (kbar)  21280.73     59.25     52.01
                               59.25  21212.60     30.11
                               52.01     30.11 -91347.18

     hubbard stress (kbar)   -287.61      5.25     -4.75
                                5.25   -293.64     -2.75
                               -4.75     -2.75   -313.53

     DFT-D   stress (kbar)      0.00      0.00      0.00
                                0.00      0.00      0.00
                                0.00      0.00      0.00

     XDM     stress (kbar)      0.00      0.00      0.00
                                0.00      0.00      0.00
                                0.00      0.00      0.00

     dft-nl  stress (kbar)      0.00      0.00      0.00
                                0.00      0.00      0.00
                                0.00      0.00      0.00

     TS-vdW  stress (kbar)      0.00      0.00      0.00
                                0.00      0.00      0.00
                                0.00      0.00      0.00

     MDB     stress (kbar)      0.00      0.00      0.00
                                0.00      0.00      0.00
                                0.00      0.00      0.00

     3D-RISM stress (kbar)      0.00      0.00      0.00
                                0.00      0.00      0.00
                                0.00      0.00      0.00


     Writing all to output data dir ./out/aiida.save/ :
     XML data file, charge density, pseudopotentials, collected wavefunctions
 
     init_run     :     26.94s CPU     29.75s WALL (       2 calls)
     electrons    :   6532.03s CPU   6600.52s WALL (       2 calls)
     forces       :     76.69s CPU     77.50s WALL (       2 calls)
     stress       :    166.39s CPU    167.84s WALL (       2 calls)

     Called by init_run:
     wfcinit      :     23.07s CPU     25.66s WALL (       2 calls)
     wfcinit:atom :      1.50s CPU      1.50s WALL (    1136 calls)
     wfcinit:wfcr :     11.03s CPU     11.10s WALL (    1136 calls)
     potinit      :      0.58s CPU      0.65s WALL (       2 calls)
     hinit0       :      1.86s CPU      1.91s WALL (       2 calls)

     Called by electrons:
     c_bands      :   4882.09s CPU   4943.16s WALL (     263 calls)
     sum_band     :   1570.35s CPU   1577.11s WALL (     263 calls)
     v_of_rho     :      6.53s CPU      6.61s WALL (     265 calls)
     v_h          :      2.18s CPU      2.20s WALL (     265 calls)
     v_xc         :      4.41s CPU      4.47s WALL (     269 calls)
     newd         :     11.08s CPU     11.14s WALL (     265 calls)
     PAW_pot      :     30.73s CPU     30.86s WALL (     265 calls)
     mix_rho      :     12.05s CPU     12.14s WALL (     263 calls)

     Called by c_bands:
     init_us_2    :    141.60s CPU    142.40s WALL (  305584 calls)
     cegterg      :   3933.55s CPU   3956.19s WALL (  149426 calls)

     Called by sum_band:
     sum_band:wei :      8.47s CPU      8.48s WALL (     263 calls)
     sum_band:loo :    891.45s CPU    895.40s WALL (     263 calls)
     sum_band:buf :    276.78s CPU    278.27s WALL (  149384 calls)
     sum_band:ini :     68.34s CPU     68.75s WALL (  149384 calls)
     sum_band:cal :      5.37s CPU      5.37s WALL (  149384 calls)
     sum_band:bec :     89.37s CPU     89.87s WALL (  149384 calls)
     addusdens    :     24.61s CPU     24.68s WALL (     263 calls)
                                       24.68s GPU  (     263 calls)
     addusd:skk   :      0.10s CPU      0.11s WALL (    1052 calls)
                                        0.11s GPU  (    1052 calls)

     Called by *egterg:
     cdiaghg      :   1264.70s CPU   1273.75s WALL (  526040 calls)
                                     1270.33s GPU  (  526040 calls)
     cegterg:over :    112.61s CPU    113.56s WALL (  373248 calls)
     cegterg:upda :    198.80s CPU    199.61s WALL (  373248 calls)
     cegterg:last :     49.61s CPU     49.79s WALL (  276040 calls)
     h_psi        :   2027.29s CPU   2040.96s WALL (  523810 calls)
     s_psi        :    185.87s CPU    188.07s WALL (  529490 calls)
     g_psi        :      9.62s CPU      9.68s WALL (  373248 calls)

     Called by h_psi:
     h_psi:calbec :     14.48s CPU     14.61s WALL (  523810 calls)
     vloc_psi     :   1740.31s CPU   1755.21s WALL (  523810 calls)
                                     1751.86s GPU  (  523810 calls)
     add_vuspsi   :    163.49s CPU    165.46s WALL (  523810 calls)
     vhpsi        :     88.44s CPU     89.60s WALL (  523810 calls)

     General routines
     calbec       :    421.87s CPU    423.92s WALL ( 2801604 calls)
     fft          :      9.28s CPU      9.75s WALL (    6701 calls)
                                        0.48s GPU  (    6171 calls)
     ffts         :      1.53s CPU      1.55s WALL (    1056 calls)
                                        0.02s GPU  (     526 calls)
     fftw         :     34.97s CPU   1428.55s WALL ( 4538270 calls)
                                     1398.95s GPU  ( 4538270 calls)
     interpolate  :     12.14s CPU     12.18s WALL (     530 calls)
 
     Parallel routines

     Hubbard U routines
     new_ns       :    633.96s CPU    636.63s WALL (     263 calls)
     vhpsi        :     88.44s CPU     89.60s WALL (  523810 calls)
     force_hub    :     71.70s CPU     72.48s WALL (       2 calls)
     stres_hub    :    157.28s CPU    158.69s WALL (       2 calls)

     PAW routines
     PAW_pot      :     30.73s CPU     30.86s WALL (     265 calls)
     PAW_symme    :      0.03s CPU      0.03s WALL (     528 calls)
 
     PWSCF        :      1h53m CPU      1h54m WALL

 
   This run was terminated on:   0:59:20  27Oct2025            

=------------------------------------------------------------------------------=
   JOB DONE.
=------------------------------------------------------------------------------=
