
     Program PWSCF v.7.4.1 starts on 15Oct2025 at 15:42: 4 

     This program is part of the open-source Quantum ESPRESSO suite
     for quantum simulation of materials; please cite
         "P. Giannozzi et al., J. Phys.:Condens. Matter 21 395502 (2009);
         "P. Giannozzi et al., J. Phys.:Condens. Matter 29 465901 (2017);
         "P. Giannozzi et al., J. Chem. Phys. 152 154105 (2020);
          URL http://www.quantum-espresso.org", 
     in publications or presentations arising from this work. More details at
     http://www.quantum-espresso.org/quote

     Parallel version (MPI & OpenMP), running on       1 processor cores
     Number of MPI processes:                 1
     Threads/MPI process:                     1

     MPI processes distributed on     1 nodes
     490077 MiB available memory on the printing compute node when the environment starts
 
     Reading input from pwscf.in
Warning: card &FCP ignored
Warning: card &RISM ignored

     Current dimensions of program PWSCF are:
     Max number of different atomic species (ntypx) = 10
     Max number of k-points (npk) =  40000
     Max angular momentum in pseudopotentials (lmaxx) =  4
     file O.pbesol-n-kjpaw_psl.0.1.UPF: wavefunction(s)  2P renormalized
 check tnoseh fnoseh  F    1.000000000000000     
     Message from routine setup:
     using ibrav=0 with symmetry is DISCOURAGED, use correct ibrav instead
 
     Subspace diagonalization in iterative solution of the eigenvalue problem:
     a serial algorithm will be used

 
     G-vector sticks info
     --------------------
     sticks:   dense  smooth     PW     G-vecs:    dense   smooth      PW
     Sum        6421    2133    595               454975    87457   13325
 
     Using Slab Decomposition
 


     bravais-lattice index     =            0
     lattice parameter (alat)  =      10.9156  a.u.
     unit-cell volume          =    1236.6212 (a.u.)^3
     number of atoms/cell      =           12
     number of atomic types    =            3
     number of electrons       =       110.00
     number of Kohn-Sham states=           66
     kinetic-energy cutoff     =      65.0000  Ry
     charge density cutoff     =     780.0000  Ry
     scf convergence threshold =      2.6E-09
     mixing beta               =       0.7000
     number of iterations used =            8  plain     mixing
     energy convergence thresh.=      1.3E-04
     force convergence thresh. =      1.0E-04
     press convergence thresh. =      5.0E-01
     Exchange-correlation= SLA  PW   PSX  PSC
                           (   1   4  10   8   0   0   0)
     nstep                     =          180


     GPU acceleration is ACTIVE.  1 visible GPUs per MPI rank
     GPU-aware MPI enabled


     GPU used by master process:

        Device Number: 0
        Device name: NVIDIA A100-SXM-64GB
        Compute capability : 80
        Ratio of single to double precision performance  : 2
        Memory Clock Rate (KHz): 1593000
        Memory Bus Width (bits): 4096
        Peak Memory Bandwidth (GB/s): ******
     Hubbard projectors: ortho-atomic
     Hubbard parameters of DFT+U (Dudarev formulation) in eV:
     U(Co-3d) =  5.2000

     Internal variables: lda_plus_u = T, lda_plus_u_kind = 0

     celldm(1)=  10.915571  celldm(2)=   0.000000  celldm(3)=   0.000000
     celldm(4)=   0.000000  celldm(5)=   0.000000  celldm(6)=   0.000000

     crystal axes: (cart. coord. in units of alat)
               a(1) = (   1.000000   0.000000   0.000000 )  
               a(2) = (   0.498818   0.866707   0.000000 )  
               a(3) = (   0.460800   0.266463   1.097047 )  

     reciprocal axes: (cart. coord. in units 2 pi/alat)
               b(1) = (  1.000000 -0.575532 -0.280246 )  
               b(2) = (  0.000000  1.153793 -0.280246 )  
               b(3) = (  0.000000  0.000000  0.911538 )  


     PseudoPot. # 1 for Co read from file:
     /leonardo_scratch/large/userexternal/nalghamd/mc_mace/GNoME-screening/2_space_group_DFT/pseudo_SSSP1.3_aiida/co_pbesol_v1.2.uspp.F.UPF
     MD5 check sum: 3b4cd4e7cc7df4da9fdede0fd33e2193
     Pseudo is Ultrasoft + core correction, Zval = 17.0
     Generated by new atomic code, or converted to UPF format
     Using radial grid of  863 points,  6 beta functions with: 
                l(1) =   0
                l(2) =   0
                l(3) =   1
                l(4) =   1
                l(5) =   2
                l(6) =   2
     Q(r) pseudized with  8 coefficients,  rinner =    1.200   1.200   1.200
                                                       1.200   1.200

     PseudoPot. # 2 for Mn read from file:
     /leonardo_scratch/large/userexternal/nalghamd/mc_mace/GNoME-screening/2_space_group_DFT/pseudo_SSSP1.3_aiida/mn_pbesol_v1.5.uspp.F.UPF
     MD5 check sum: 0716d5f563e6e95a34f9080f4c78c109
     Pseudo is Ultrasoft + core correction, Zval = 15.0
     Generated by new atomic code, or converted to UPF format
     Using radial grid of  859 points,  6 beta functions with: 
                l(1) =   0
                l(2) =   0
                l(3) =   1
                l(4) =   1
                l(5) =   2
                l(6) =   2
     Q(r) pseudized with  8 coefficients,  rinner =    0.950   0.950   0.950
                                                       0.950   0.950

     PseudoPot. # 3 for O  read from file:
     /leonardo_scratch/large/userexternal/nalghamd/mc_mace/GNoME-screening/2_space_group_DFT/pseudo_SSSP1.3_aiida/O.pbesol-n-kjpaw_psl.0.1.UPF
     MD5 check sum: 81d73d1479e654e5638b0319f0d6c2c7
     Pseudo is Projector augmented-wave + core cor, Zval =  6.0
     Generated using "atomic" code by A. Dal Corso  v.6.0 svn rev. 13079
     Shape of augmentation charge: BESSEL
     Using radial grid of 1095 points,  4 beta functions with: 
                l(1) =   0
                l(2) =   0
                l(3) =   1
                l(4) =   1
     Q(r) pseudized with 0 coefficients 


     atomic species   valence    mass     pseudopotential
     Co               17.00    58.93319     Co( 1.00)
     Mn               15.00    54.93805     Mn( 1.00)
     O                 6.00    15.99940     O ( 1.00)

     Starting magnetic structure 
     atomic species   magnetization
     Co              0.294
     Mn              0.100
     O               0.333

      2 Sym. Ops., with inversion, found


                                    s                        frac. trans.

      isym =  1     identity                                     

 cryst.   s( 1) = (     1          0          0      )
                  (     0          1          0      )
                  (     0          0          1      )

 cart.    s( 1) = (  1.0000000 -0.0000000 -0.0000000 )
                  (  0.0000000  1.0000000 -0.0000000 )
                  (  0.0000000  0.0000000  1.0000000 )


      isym =  2     inversion                                    

 cryst.   s( 2) = (    -1          0          0      )
                  (     0         -1          0      )
                  (     0          0         -1      )

 cart.    s( 2) = ( -1.0000000  0.0000000  0.0000000 )
                  (  0.0000000 -1.0000000  0.0000000 )
                  (  0.0000000  0.0000000 -1.0000000 )


   Cartesian axes

     site n.     atom                  positions (alat units)
         1        Mn     tau(   1) = (   0.0000000   0.0000000   0.0000000  )
         2        Mn     tau(   2) = (   0.2494088   0.4333535   0.0000000  )
         3        Mn     tau(   3) = (   0.5000000   0.0000000   0.0000000  )
         4        Co     tau(   4) = (   0.7494088   0.4333535   0.0000000  )
         5        O      tau(   5) = (   1.4610398   0.8448615   0.9272501  )
         6        O      tau(   6) = (   1.2107687   0.4109019   0.9278732  )
         7        O      tau(   7) = (   0.9600843   0.8444166   0.9278732  )
         8        O      tau(   8) = (   0.7111866   0.4112511   0.9240368  )
         9        O      tau(   9) = (   1.2484315   0.7219186   0.1730097  )
        10        O      tau(  10) = (   0.9995337   0.2887531   0.1691734  )
        11        O      tau(  11) = (   0.7488493   0.7222677   0.1691734  )
        12        O      tau(  12) = (   0.4985783   0.2883081   0.1697965  )

   Crystallographic axes

     site n.     atom                  positions (cryst. coord.)
         1        Mn     tau(   1) = (  0.0000000  0.0000000  0.0000000  )
         2        Mn     tau(   2) = ( -0.0000000  0.5000000  0.0000000  )
         3        Mn     tau(   3) = (  0.5000000  0.0000000  0.0000000  )
         4        Co     tau(   4) = (  0.5000000  0.5000000  0.0000000  )
         5        O      tau(   5) = (  0.7149370  0.7149370  0.8452240  )
         6        O      tau(   6) = (  0.7142490  0.2140630  0.8457920  )
         7        O      tau(   7) = (  0.2140630  0.7142490  0.8457920  )
         8        O      tau(   8) = (  0.2155410  0.2155410  0.8422950  )
         9        O      tau(   9) = (  0.7844590  0.7844590  0.1577050  )
        10        O      tau(  10) = (  0.7859370  0.2857510  0.1542080  )
        11        O      tau(  11) = (  0.2857510  0.7859370  0.1542080  )
        12        O      tau(  12) = (  0.2850630  0.2850630  0.1547760  )

     number of k points=   284  Marzari-Vanderbilt smearing, width (Ry)=  0.0200
                       cart. coord. in units 2pi/alat
        k(    1) = (   0.0000000   0.0000000   0.0000000), wk =   0.0017637
        k(    2) = (   0.0000000   0.0000000   0.1302198), wk =   0.0035273
        k(    3) = (   0.0000000   0.0000000   0.2604395), wk =   0.0035273
        k(    4) = (   0.0000000   0.0000000   0.3906593), wk =   0.0035273
        k(    5) = (   0.0000000   0.1281992  -0.0311384), wk =   0.0035273
        k(    6) = (   0.0000000   0.1281992   0.0990813), wk =   0.0035273
        k(    7) = (   0.0000000   0.1281992   0.2293011), wk =   0.0035273
        k(    8) = (   0.0000000   0.1281992   0.3595209), wk =   0.0035273
        k(    9) = (   0.0000000   0.1281992  -0.4217977), wk =   0.0035273
        k(   10) = (   0.0000000   0.1281992  -0.2915779), wk =   0.0035273
        k(   11) = (   0.0000000   0.1281992  -0.1613582), wk =   0.0035273
        k(   12) = (   0.0000000   0.2563983  -0.0622768), wk =   0.0035273
        k(   13) = (   0.0000000   0.2563983   0.0679429), wk =   0.0035273
        k(   14) = (   0.0000000   0.2563983   0.1981627), wk =   0.0035273
        k(   15) = (   0.0000000   0.2563983   0.3283825), wk =   0.0035273
        k(   16) = (   0.0000000   0.2563983  -0.4529361), wk =   0.0035273
        k(   17) = (   0.0000000   0.2563983  -0.3227164), wk =   0.0035273
        k(   18) = (   0.0000000   0.2563983  -0.1924966), wk =   0.0035273
        k(   19) = (   0.0000000   0.3845975  -0.0934152), wk =   0.0035273
        k(   20) = (   0.0000000   0.3845975   0.0368045), wk =   0.0035273
        k(   21) = (   0.0000000   0.3845975   0.1670243), wk =   0.0035273
        k(   22) = (   0.0000000   0.3845975   0.2972440), wk =   0.0035273
        k(   23) = (   0.0000000   0.3845975  -0.4840745), wk =   0.0035273
        k(   24) = (   0.0000000   0.3845975  -0.3538548), wk =   0.0035273
        k(   25) = (   0.0000000   0.3845975  -0.2236350), wk =   0.0035273
        k(   26) = (   0.0000000   0.5127967  -0.1245537), wk =   0.0035273
        k(   27) = (   0.0000000   0.5127967   0.0056661), wk =   0.0035273
        k(   28) = (   0.0000000   0.5127967   0.1358859), wk =   0.0035273
        k(   29) = (   0.0000000   0.5127967   0.2661056), wk =   0.0035273
        k(   30) = (   0.0000000   0.5127967  -0.5152129), wk =   0.0035273
        k(   31) = (   0.0000000   0.5127967  -0.3849932), wk =   0.0035273
        k(   32) = (   0.0000000   0.5127967  -0.2547734), wk =   0.0035273
        k(   33) = (   0.1111111  -0.0639480  -0.0311384), wk =   0.0035273
        k(   34) = (   0.1111111  -0.0639480   0.0990813), wk =   0.0035273
        k(   35) = (   0.1111111  -0.0639480   0.2293011), wk =   0.0035273
        k(   36) = (   0.1111111  -0.0639480   0.3595209), wk =   0.0035273
        k(   37) = (   0.1111111  -0.0639480  -0.4217977), wk =   0.0035273
        k(   38) = (   0.1111111  -0.0639480  -0.2915779), wk =   0.0035273
        k(   39) = (   0.1111111  -0.0639480  -0.1613582), wk =   0.0035273
        k(   40) = (   0.1111111   0.0642512  -0.0622768), wk =   0.0035273
        k(   41) = (   0.1111111   0.0642512   0.0679429), wk =   0.0035273
        k(   42) = (   0.1111111   0.0642512   0.1981627), wk =   0.0035273
        k(   43) = (   0.1111111   0.0642512   0.3283825), wk =   0.0035273
        k(   44) = (   0.1111111   0.0642512  -0.4529361), wk =   0.0035273
        k(   45) = (   0.1111111   0.0642512  -0.3227164), wk =   0.0035273
        k(   46) = (   0.1111111   0.0642512  -0.1924966), wk =   0.0035273
        k(   47) = (   0.1111111   0.1924503  -0.0934152), wk =   0.0035273
        k(   48) = (   0.1111111   0.1924503   0.0368045), wk =   0.0035273
        k(   49) = (   0.1111111   0.1924503   0.1670243), wk =   0.0035273
        k(   50) = (   0.1111111   0.1924503   0.2972440), wk =   0.0035273
        k(   51) = (   0.1111111   0.1924503  -0.4840745), wk =   0.0035273
        k(   52) = (   0.1111111   0.1924503  -0.3538548), wk =   0.0035273
        k(   53) = (   0.1111111   0.1924503  -0.2236350), wk =   0.0035273
        k(   54) = (   0.1111111   0.3206495  -0.1245537), wk =   0.0035273
        k(   55) = (   0.1111111   0.3206495   0.0056661), wk =   0.0035273
        k(   56) = (   0.1111111   0.3206495   0.1358859), wk =   0.0035273
        k(   57) = (   0.1111111   0.3206495   0.2661056), wk =   0.0035273
        k(   58) = (   0.1111111   0.3206495  -0.5152129), wk =   0.0035273
        k(   59) = (   0.1111111   0.3206495  -0.3849932), wk =   0.0035273
        k(   60) = (   0.1111111   0.3206495  -0.2547734), wk =   0.0035273
        k(   61) = (   0.1111111   0.4488487  -0.1556921), wk =   0.0035273
        k(   62) = (   0.1111111   0.4488487  -0.0254723), wk =   0.0035273
        k(   63) = (   0.1111111   0.4488487   0.1047474), wk =   0.0035273
        k(   64) = (   0.1111111   0.4488487   0.2349672), wk =   0.0035273
        k(   65) = (   0.1111111   0.4488487  -0.5463514), wk =   0.0035273
        k(   66) = (   0.1111111   0.4488487  -0.4161316), wk =   0.0035273
        k(   67) = (   0.1111111   0.4488487  -0.2859118), wk =   0.0035273
        k(   68) = (   0.1111111  -0.5767447   0.0934152), wk =   0.0035273
        k(   69) = (   0.1111111  -0.5767447   0.2236350), wk =   0.0035273
        k(   70) = (   0.1111111  -0.5767447   0.3538548), wk =   0.0035273
        k(   71) = (   0.1111111  -0.5767447   0.4840745), wk =   0.0035273
        k(   72) = (   0.1111111  -0.5767447  -0.2972440), wk =   0.0035273
        k(   73) = (   0.1111111  -0.5767447  -0.1670243), wk =   0.0035273
        k(   74) = (   0.1111111  -0.5767447  -0.0368045), wk =   0.0035273
        k(   75) = (   0.1111111  -0.4485455   0.0622768), wk =   0.0035273
        k(   76) = (   0.1111111  -0.4485455   0.1924966), wk =   0.0035273
        k(   77) = (   0.1111111  -0.4485455   0.3227164), wk =   0.0035273
        k(   78) = (   0.1111111  -0.4485455   0.4529361), wk =   0.0035273
        k(   79) = (   0.1111111  -0.4485455  -0.3283825), wk =   0.0035273
        k(   80) = (   0.1111111  -0.4485455  -0.1981627), wk =   0.0035273
        k(   81) = (   0.1111111  -0.4485455  -0.0679429), wk =   0.0035273
        k(   82) = (   0.1111111  -0.3203463   0.0311384), wk =   0.0035273
        k(   83) = (   0.1111111  -0.3203463   0.1613582), wk =   0.0035273
        k(   84) = (   0.1111111  -0.3203463   0.2915779), wk =   0.0035273
        k(   85) = (   0.1111111  -0.3203463   0.4217977), wk =   0.0035273
        k(   86) = (   0.1111111  -0.3203463  -0.3595209), wk =   0.0035273
        k(   87) = (   0.1111111  -0.3203463  -0.2293011), wk =   0.0035273
        k(   88) = (   0.1111111  -0.3203463  -0.0990813), wk =   0.0035273
        k(   89) = (   0.1111111  -0.1921472   0.0000000), wk =   0.0035273
        k(   90) = (   0.1111111  -0.1921472   0.1302198), wk =   0.0035273
        k(   91) = (   0.1111111  -0.1921472   0.2604395), wk =   0.0035273
        k(   92) = (   0.1111111  -0.1921472   0.3906593), wk =   0.0035273
        k(   93) = (   0.1111111  -0.1921472  -0.3906593), wk =   0.0035273
        k(   94) = (   0.1111111  -0.1921472  -0.2604395), wk =   0.0035273
        k(   95) = (   0.1111111  -0.1921472  -0.1302198), wk =   0.0035273
        k(   96) = (   0.2222222  -0.1278960  -0.0622768), wk =   0.0035273
        k(   97) = (   0.2222222  -0.1278960   0.0679429), wk =   0.0035273
        k(   98) = (   0.2222222  -0.1278960   0.1981627), wk =   0.0035273
        k(   99) = (   0.2222222  -0.1278960   0.3283825), wk =   0.0035273
        k(  100) = (   0.2222222  -0.1278960  -0.4529361), wk =   0.0035273
        k(  101) = (   0.2222222  -0.1278960  -0.3227164), wk =   0.0035273
        k(  102) = (   0.2222222  -0.1278960  -0.1924966), wk =   0.0035273
        k(  103) = (   0.2222222   0.0003032  -0.0934152), wk =   0.0035273
        k(  104) = (   0.2222222   0.0003032   0.0368045), wk =   0.0035273
        k(  105) = (   0.2222222   0.0003032   0.1670243), wk =   0.0035273
        k(  106) = (   0.2222222   0.0003032   0.2972440), wk =   0.0035273
        k(  107) = (   0.2222222   0.0003032  -0.4840745), wk =   0.0035273
        k(  108) = (   0.2222222   0.0003032  -0.3538548), wk =   0.0035273
        k(  109) = (   0.2222222   0.0003032  -0.2236350), wk =   0.0035273
        k(  110) = (   0.2222222   0.1285023  -0.1245537), wk =   0.0035273
        k(  111) = (   0.2222222   0.1285023   0.0056661), wk =   0.0035273
        k(  112) = (   0.2222222   0.1285023   0.1358859), wk =   0.0035273
        k(  113) = (   0.2222222   0.1285023   0.2661056), wk =   0.0035273
        k(  114) = (   0.2222222   0.1285023  -0.5152129), wk =   0.0035273
        k(  115) = (   0.2222222   0.1285023  -0.3849932), wk =   0.0035273
        k(  116) = (   0.2222222   0.1285023  -0.2547734), wk =   0.0035273
        k(  117) = (   0.2222222   0.2567015  -0.1556921), wk =   0.0035273
        k(  118) = (   0.2222222   0.2567015  -0.0254723), wk =   0.0035273
        k(  119) = (   0.2222222   0.2567015   0.1047474), wk =   0.0035273
        k(  120) = (   0.2222222   0.2567015   0.2349672), wk =   0.0035273
        k(  121) = (   0.2222222   0.2567015  -0.5463514), wk =   0.0035273
        k(  122) = (   0.2222222   0.2567015  -0.4161316), wk =   0.0035273
        k(  123) = (   0.2222222   0.2567015  -0.2859118), wk =   0.0035273
        k(  124) = (   0.2222222   0.3849007  -0.1868305), wk =   0.0035273
        k(  125) = (   0.2222222   0.3849007  -0.0566107), wk =   0.0035273
        k(  126) = (   0.2222222   0.3849007   0.0736090), wk =   0.0035273
        k(  127) = (   0.2222222   0.3849007   0.2038288), wk =   0.0035273
        k(  128) = (   0.2222222   0.3849007  -0.5774898), wk =   0.0035273
        k(  129) = (   0.2222222   0.3849007  -0.4472700), wk =   0.0035273
        k(  130) = (   0.2222222   0.3849007  -0.3170503), wk =   0.0035273
        k(  131) = (   0.2222222  -0.6406927   0.0622768), wk =   0.0035273
        k(  132) = (   0.2222222  -0.6406927   0.1924966), wk =   0.0035273
        k(  133) = (   0.2222222  -0.6406927   0.3227164), wk =   0.0035273
        k(  134) = (   0.2222222  -0.6406927   0.4529361), wk =   0.0035273
        k(  135) = (   0.2222222  -0.6406927  -0.3283825), wk =   0.0035273
        k(  136) = (   0.2222222  -0.6406927  -0.1981627), wk =   0.0035273
        k(  137) = (   0.2222222  -0.6406927  -0.0679429), wk =   0.0035273
        k(  138) = (   0.2222222  -0.5124935   0.0311384), wk =   0.0035273
        k(  139) = (   0.2222222  -0.5124935   0.1613582), wk =   0.0035273
        k(  140) = (   0.2222222  -0.5124935   0.2915779), wk =   0.0035273
        k(  141) = (   0.2222222  -0.5124935   0.4217977), wk =   0.0035273
        k(  142) = (   0.2222222  -0.5124935  -0.3595209), wk =   0.0035273
        k(  143) = (   0.2222222  -0.5124935  -0.2293011), wk =   0.0035273
        k(  144) = (   0.2222222  -0.5124935  -0.0990813), wk =   0.0035273
        k(  145) = (   0.2222222  -0.3842943   0.0000000), wk =   0.0035273
        k(  146) = (   0.2222222  -0.3842943   0.1302198), wk =   0.0035273
        k(  147) = (   0.2222222  -0.3842943   0.2604395), wk =   0.0035273
        k(  148) = (   0.2222222  -0.3842943   0.3906593), wk =   0.0035273
        k(  149) = (   0.2222222  -0.3842943  -0.3906593), wk =   0.0035273
        k(  150) = (   0.2222222  -0.3842943  -0.2604395), wk =   0.0035273
        k(  151) = (   0.2222222  -0.3842943  -0.1302198), wk =   0.0035273
        k(  152) = (   0.2222222  -0.2560952  -0.0311384), wk =   0.0035273
        k(  153) = (   0.2222222  -0.2560952   0.0990813), wk =   0.0035273
        k(  154) = (   0.2222222  -0.2560952   0.2293011), wk =   0.0035273
        k(  155) = (   0.2222222  -0.2560952   0.3595209), wk =   0.0035273
        k(  156) = (   0.2222222  -0.2560952  -0.4217977), wk =   0.0035273
        k(  157) = (   0.2222222  -0.2560952  -0.2915779), wk =   0.0035273
        k(  158) = (   0.2222222  -0.2560952  -0.1613582), wk =   0.0035273
        k(  159) = (   0.3333333  -0.1918440  -0.0934152), wk =   0.0035273
        k(  160) = (   0.3333333  -0.1918440   0.0368045), wk =   0.0035273
        k(  161) = (   0.3333333  -0.1918440   0.1670243), wk =   0.0035273
        k(  162) = (   0.3333333  -0.1918440   0.2972440), wk =   0.0035273
        k(  163) = (   0.3333333  -0.1918440  -0.4840745), wk =   0.0035273
        k(  164) = (   0.3333333  -0.1918440  -0.3538548), wk =   0.0035273
        k(  165) = (   0.3333333  -0.1918440  -0.2236350), wk =   0.0035273
        k(  166) = (   0.3333333  -0.0636448  -0.1245537), wk =   0.0035273
        k(  167) = (   0.3333333  -0.0636448   0.0056661), wk =   0.0035273
        k(  168) = (   0.3333333  -0.0636448   0.1358859), wk =   0.0035273
        k(  169) = (   0.3333333  -0.0636448   0.2661056), wk =   0.0035273
        k(  170) = (   0.3333333  -0.0636448  -0.5152129), wk =   0.0035273
        k(  171) = (   0.3333333  -0.0636448  -0.3849932), wk =   0.0035273
        k(  172) = (   0.3333333  -0.0636448  -0.2547734), wk =   0.0035273
        k(  173) = (   0.3333333   0.0645543  -0.1556921), wk =   0.0035273
        k(  174) = (   0.3333333   0.0645543  -0.0254723), wk =   0.0035273
        k(  175) = (   0.3333333   0.0645543   0.1047474), wk =   0.0035273
        k(  176) = (   0.3333333   0.0645543   0.2349672), wk =   0.0035273
        k(  177) = (   0.3333333   0.0645543  -0.5463514), wk =   0.0035273
        k(  178) = (   0.3333333   0.0645543  -0.4161316), wk =   0.0035273
        k(  179) = (   0.3333333   0.0645543  -0.2859118), wk =   0.0035273
        k(  180) = (   0.3333333   0.1927535  -0.1868305), wk =   0.0035273
        k(  181) = (   0.3333333   0.1927535  -0.0566107), wk =   0.0035273
        k(  182) = (   0.3333333   0.1927535   0.0736090), wk =   0.0035273
        k(  183) = (   0.3333333   0.1927535   0.2038288), wk =   0.0035273
        k(  184) = (   0.3333333   0.1927535  -0.5774898), wk =   0.0035273
        k(  185) = (   0.3333333   0.1927535  -0.4472700), wk =   0.0035273
        k(  186) = (   0.3333333   0.1927535  -0.3170503), wk =   0.0035273
        k(  187) = (   0.3333333   0.3209527  -0.2179689), wk =   0.0035273
        k(  188) = (   0.3333333   0.3209527  -0.0877492), wk =   0.0035273
        k(  189) = (   0.3333333   0.3209527   0.0424706), wk =   0.0035273
        k(  190) = (   0.3333333   0.3209527   0.1726904), wk =   0.0035273
        k(  191) = (   0.3333333   0.3209527  -0.6086282), wk =   0.0035273
        k(  192) = (   0.3333333   0.3209527  -0.4784084), wk =   0.0035273
        k(  193) = (   0.3333333   0.3209527  -0.3481887), wk =   0.0035273
        k(  194) = (   0.3333333  -0.7046407   0.0311384), wk =   0.0035273
        k(  195) = (   0.3333333  -0.7046407   0.1613582), wk =   0.0035273
        k(  196) = (   0.3333333  -0.7046407   0.2915779), wk =   0.0035273
        k(  197) = (   0.3333333  -0.7046407   0.4217977), wk =   0.0035273
        k(  198) = (   0.3333333  -0.7046407  -0.3595209), wk =   0.0035273
        k(  199) = (   0.3333333  -0.7046407  -0.2293011), wk =   0.0035273
        k(  200) = (   0.3333333  -0.7046407  -0.0990813), wk =   0.0035273
        k(  201) = (   0.3333333  -0.5764415   0.0000000), wk =   0.0035273
        k(  202) = (   0.3333333  -0.5764415   0.1302198), wk =   0.0035273
        k(  203) = (   0.3333333  -0.5764415   0.2604395), wk =   0.0035273
        k(  204) = (   0.3333333  -0.5764415   0.3906593), wk =   0.0035273
        k(  205) = (   0.3333333  -0.5764415  -0.3906593), wk =   0.0035273
        k(  206) = (   0.3333333  -0.5764415  -0.2604395), wk =   0.0035273
        k(  207) = (   0.3333333  -0.5764415  -0.1302198), wk =   0.0035273
        k(  208) = (   0.3333333  -0.4482424  -0.0311384), wk =   0.0035273
        k(  209) = (   0.3333333  -0.4482424   0.0990813), wk =   0.0035273
        k(  210) = (   0.3333333  -0.4482424   0.2293011), wk =   0.0035273
        k(  211) = (   0.3333333  -0.4482424   0.3595209), wk =   0.0035273
        k(  212) = (   0.3333333  -0.4482424  -0.4217977), wk =   0.0035273
        k(  213) = (   0.3333333  -0.4482424  -0.2915779), wk =   0.0035273
        k(  214) = (   0.3333333  -0.4482424  -0.1613582), wk =   0.0035273
        k(  215) = (   0.3333333  -0.3200432  -0.0622768), wk =   0.0035273
        k(  216) = (   0.3333333  -0.3200432   0.0679429), wk =   0.0035273
        k(  217) = (   0.3333333  -0.3200432   0.1981627), wk =   0.0035273
        k(  218) = (   0.3333333  -0.3200432   0.3283825), wk =   0.0035273
        k(  219) = (   0.3333333  -0.3200432  -0.4529361), wk =   0.0035273
        k(  220) = (   0.3333333  -0.3200432  -0.3227164), wk =   0.0035273
        k(  221) = (   0.3333333  -0.3200432  -0.1924966), wk =   0.0035273
        k(  222) = (   0.4444444  -0.2557920  -0.1245537), wk =   0.0035273
        k(  223) = (   0.4444444  -0.2557920   0.0056661), wk =   0.0035273
        k(  224) = (   0.4444444  -0.2557920   0.1358859), wk =   0.0035273
        k(  225) = (   0.4444444  -0.2557920   0.2661056), wk =   0.0035273
        k(  226) = (   0.4444444  -0.2557920  -0.5152129), wk =   0.0035273
        k(  227) = (   0.4444444  -0.2557920  -0.3849932), wk =   0.0035273
        k(  228) = (   0.4444444  -0.2557920  -0.2547734), wk =   0.0035273
        k(  229) = (   0.4444444  -0.1275929  -0.1556921), wk =   0.0035273
        k(  230) = (   0.4444444  -0.1275929  -0.0254723), wk =   0.0035273
        k(  231) = (   0.4444444  -0.1275929   0.1047474), wk =   0.0035273
        k(  232) = (   0.4444444  -0.1275929   0.2349672), wk =   0.0035273
        k(  233) = (   0.4444444  -0.1275929  -0.5463514), wk =   0.0035273
        k(  234) = (   0.4444444  -0.1275929  -0.4161316), wk =   0.0035273
        k(  235) = (   0.4444444  -0.1275929  -0.2859118), wk =   0.0035273
        k(  236) = (   0.4444444   0.0006063  -0.1868305), wk =   0.0035273
        k(  237) = (   0.4444444   0.0006063  -0.0566107), wk =   0.0035273
        k(  238) = (   0.4444444   0.0006063   0.0736090), wk =   0.0035273
        k(  239) = (   0.4444444   0.0006063   0.2038288), wk =   0.0035273
        k(  240) = (   0.4444444   0.0006063  -0.5774898), wk =   0.0035273
        k(  241) = (   0.4444444   0.0006063  -0.4472700), wk =   0.0035273
        k(  242) = (   0.4444444   0.0006063  -0.3170503), wk =   0.0035273
        k(  243) = (   0.4444444   0.1288055  -0.2179689), wk =   0.0035273
        k(  244) = (   0.4444444   0.1288055  -0.0877492), wk =   0.0035273
        k(  245) = (   0.4444444   0.1288055   0.0424706), wk =   0.0035273
        k(  246) = (   0.4444444   0.1288055   0.1726904), wk =   0.0035273
        k(  247) = (   0.4444444   0.1288055  -0.6086282), wk =   0.0035273
        k(  248) = (   0.4444444   0.1288055  -0.4784084), wk =   0.0035273
        k(  249) = (   0.4444444   0.1288055  -0.3481887), wk =   0.0035273
        k(  250) = (   0.4444444   0.2570047  -0.2491073), wk =   0.0035273
        k(  251) = (   0.4444444   0.2570047  -0.1188876), wk =   0.0035273
        k(  252) = (   0.4444444   0.2570047   0.0113322), wk =   0.0035273
        k(  253) = (   0.4444444   0.2570047   0.1415520), wk =   0.0035273
        k(  254) = (   0.4444444   0.2570047  -0.6397666), wk =   0.0035273
        k(  255) = (   0.4444444   0.2570047  -0.5095469), wk =   0.0035273
        k(  256) = (   0.4444444   0.2570047  -0.3793271), wk =   0.0035273
        k(  257) = (   0.4444444  -0.7685887   0.0000000), wk =   0.0035273
        k(  258) = (   0.4444444  -0.7685887   0.1302198), wk =   0.0035273
        k(  259) = (   0.4444444  -0.7685887   0.2604395), wk =   0.0035273
        k(  260) = (   0.4444444  -0.7685887   0.3906593), wk =   0.0035273
        k(  261) = (   0.4444444  -0.7685887  -0.3906593), wk =   0.0035273
        k(  262) = (   0.4444444  -0.7685887  -0.2604395), wk =   0.0035273
        k(  263) = (   0.4444444  -0.7685887  -0.1302198), wk =   0.0035273
        k(  264) = (   0.4444444  -0.6403895  -0.0311384), wk =   0.0035273
        k(  265) = (   0.4444444  -0.6403895   0.0990813), wk =   0.0035273
        k(  266) = (   0.4444444  -0.6403895   0.2293011), wk =   0.0035273
        k(  267) = (   0.4444444  -0.6403895   0.3595209), wk =   0.0035273
        k(  268) = (   0.4444444  -0.6403895  -0.4217977), wk =   0.0035273
        k(  269) = (   0.4444444  -0.6403895  -0.2915779), wk =   0.0035273
        k(  270) = (   0.4444444  -0.6403895  -0.1613582), wk =   0.0035273
        k(  271) = (   0.4444444  -0.5121904  -0.0622768), wk =   0.0035273
        k(  272) = (   0.4444444  -0.5121904   0.0679429), wk =   0.0035273
        k(  273) = (   0.4444444  -0.5121904   0.1981627), wk =   0.0035273
        k(  274) = (   0.4444444  -0.5121904   0.3283825), wk =   0.0035273
        k(  275) = (   0.4444444  -0.5121904  -0.4529361), wk =   0.0035273
        k(  276) = (   0.4444444  -0.5121904  -0.3227164), wk =   0.0035273
        k(  277) = (   0.4444444  -0.5121904  -0.1924966), wk =   0.0035273
        k(  278) = (   0.4444444  -0.3839912  -0.0934152), wk =   0.0035273
        k(  279) = (   0.4444444  -0.3839912   0.0368045), wk =   0.0035273
        k(  280) = (   0.4444444  -0.3839912   0.1670243), wk =   0.0035273
        k(  281) = (   0.4444444  -0.3839912   0.2972440), wk =   0.0035273
        k(  282) = (   0.4444444  -0.3839912  -0.4840745), wk =   0.0035273
        k(  283) = (   0.4444444  -0.3839912  -0.3538548), wk =   0.0035273
        k(  284) = (   0.4444444  -0.3839912  -0.2236350), wk =   0.0035273

                       cryst. coord.
        k(    1) = (   0.0000000   0.0000000   0.0000000), wk =   0.0017637
        k(    2) = (   0.0000000   0.0000000   0.1428571), wk =   0.0035273
        k(    3) = (   0.0000000   0.0000000   0.2857143), wk =   0.0035273
        k(    4) = (   0.0000000   0.0000000   0.4285714), wk =   0.0035273
        k(    5) = (   0.0000000   0.1111111   0.0000000), wk =   0.0035273
        k(    6) = (   0.0000000   0.1111111   0.1428571), wk =   0.0035273
        k(    7) = (   0.0000000   0.1111111   0.2857143), wk =   0.0035273
        k(    8) = (   0.0000000   0.1111111   0.4285714), wk =   0.0035273
        k(    9) = (   0.0000000   0.1111111  -0.4285714), wk =   0.0035273
        k(   10) = (   0.0000000   0.1111111  -0.2857143), wk =   0.0035273
        k(   11) = (   0.0000000   0.1111111  -0.1428571), wk =   0.0035273
        k(   12) = (   0.0000000   0.2222222   0.0000000), wk =   0.0035273
        k(   13) = (   0.0000000   0.2222222   0.1428571), wk =   0.0035273
        k(   14) = (   0.0000000   0.2222222   0.2857143), wk =   0.0035273
        k(   15) = (   0.0000000   0.2222222   0.4285714), wk =   0.0035273
        k(   16) = (   0.0000000   0.2222222  -0.4285714), wk =   0.0035273
        k(   17) = (   0.0000000   0.2222222  -0.2857143), wk =   0.0035273
        k(   18) = (   0.0000000   0.2222222  -0.1428571), wk =   0.0035273
        k(   19) = (   0.0000000   0.3333333   0.0000000), wk =   0.0035273
        k(   20) = (   0.0000000   0.3333333   0.1428571), wk =   0.0035273
        k(   21) = (   0.0000000   0.3333333   0.2857143), wk =   0.0035273
        k(   22) = (   0.0000000   0.3333333   0.4285714), wk =   0.0035273
        k(   23) = (   0.0000000   0.3333333  -0.4285714), wk =   0.0035273
        k(   24) = (   0.0000000   0.3333333  -0.2857143), wk =   0.0035273
        k(   25) = (   0.0000000   0.3333333  -0.1428571), wk =   0.0035273
        k(   26) = (   0.0000000   0.4444444   0.0000000), wk =   0.0035273
        k(   27) = (   0.0000000   0.4444444   0.1428571), wk =   0.0035273
        k(   28) = (   0.0000000   0.4444444   0.2857143), wk =   0.0035273
        k(   29) = (   0.0000000   0.4444444   0.4285714), wk =   0.0035273
        k(   30) = (   0.0000000   0.4444444  -0.4285714), wk =   0.0035273
        k(   31) = (   0.0000000   0.4444444  -0.2857143), wk =   0.0035273
        k(   32) = (   0.0000000   0.4444444  -0.1428571), wk =   0.0035273
        k(   33) = (   0.1111111  -0.0000000   0.0000000), wk =   0.0035273
        k(   34) = (   0.1111111  -0.0000000   0.1428571), wk =   0.0035273
        k(   35) = (   0.1111111  -0.0000000   0.2857143), wk =   0.0035273
        k(   36) = (   0.1111111  -0.0000000   0.4285714), wk =   0.0035273
        k(   37) = (   0.1111111  -0.0000000  -0.4285714), wk =   0.0035273
        k(   38) = (   0.1111111  -0.0000000  -0.2857143), wk =   0.0035273
        k(   39) = (   0.1111111  -0.0000000  -0.1428571), wk =   0.0035273
        k(   40) = (   0.1111111   0.1111111  -0.0000000), wk =   0.0035273
        k(   41) = (   0.1111111   0.1111111   0.1428571), wk =   0.0035273
        k(   42) = (   0.1111111   0.1111111   0.2857143), wk =   0.0035273
        k(   43) = (   0.1111111   0.1111111   0.4285714), wk =   0.0035273
        k(   44) = (   0.1111111   0.1111111  -0.4285714), wk =   0.0035273
        k(   45) = (   0.1111111   0.1111111  -0.2857143), wk =   0.0035273
        k(   46) = (   0.1111111   0.1111111  -0.1428571), wk =   0.0035273
        k(   47) = (   0.1111111   0.2222222   0.0000000), wk =   0.0035273
        k(   48) = (   0.1111111   0.2222222   0.1428571), wk =   0.0035273
        k(   49) = (   0.1111111   0.2222222   0.2857143), wk =   0.0035273
        k(   50) = (   0.1111111   0.2222222   0.4285714), wk =   0.0035273
        k(   51) = (   0.1111111   0.2222222  -0.4285714), wk =   0.0035273
        k(   52) = (   0.1111111   0.2222222  -0.2857143), wk =   0.0035273
        k(   53) = (   0.1111111   0.2222222  -0.1428571), wk =   0.0035273
        k(   54) = (   0.1111111   0.3333333  -0.0000000), wk =   0.0035273
        k(   55) = (   0.1111111   0.3333333   0.1428571), wk =   0.0035273
        k(   56) = (   0.1111111   0.3333333   0.2857143), wk =   0.0035273
        k(   57) = (   0.1111111   0.3333333   0.4285714), wk =   0.0035273
        k(   58) = (   0.1111111   0.3333333  -0.4285714), wk =   0.0035273
        k(   59) = (   0.1111111   0.3333333  -0.2857143), wk =   0.0035273
        k(   60) = (   0.1111111   0.3333333  -0.1428571), wk =   0.0035273
        k(   61) = (   0.1111111   0.4444444   0.0000000), wk =   0.0035273
        k(   62) = (   0.1111111   0.4444444   0.1428571), wk =   0.0035273
        k(   63) = (   0.1111111   0.4444444   0.2857143), wk =   0.0035273
        k(   64) = (   0.1111111   0.4444444   0.4285714), wk =   0.0035273
        k(   65) = (   0.1111111   0.4444444  -0.4285714), wk =   0.0035273
        k(   66) = (   0.1111111   0.4444444  -0.2857143), wk =   0.0035273
        k(   67) = (   0.1111111   0.4444444  -0.1428571), wk =   0.0035273
        k(   68) = (   0.1111111  -0.4444444  -0.0000000), wk =   0.0035273
        k(   69) = (   0.1111111  -0.4444444   0.1428571), wk =   0.0035273
        k(   70) = (   0.1111111  -0.4444444   0.2857143), wk =   0.0035273
        k(   71) = (   0.1111111  -0.4444444   0.4285714), wk =   0.0035273
        k(   72) = (   0.1111111  -0.4444444  -0.4285714), wk =   0.0035273
        k(   73) = (   0.1111111  -0.4444444  -0.2857143), wk =   0.0035273
        k(   74) = (   0.1111111  -0.4444444  -0.1428571), wk =   0.0035273
        k(   75) = (   0.1111111  -0.3333333  -0.0000000), wk =   0.0035273
        k(   76) = (   0.1111111  -0.3333333   0.1428571), wk =   0.0035273
        k(   77) = (   0.1111111  -0.3333333   0.2857143), wk =   0.0035273
        k(   78) = (   0.1111111  -0.3333333   0.4285714), wk =   0.0035273
        k(   79) = (   0.1111111  -0.3333333  -0.4285714), wk =   0.0035273
        k(   80) = (   0.1111111  -0.3333333  -0.2857143), wk =   0.0035273
        k(   81) = (   0.1111111  -0.3333333  -0.1428571), wk =   0.0035273
        k(   82) = (   0.1111111  -0.2222222  -0.0000000), wk =   0.0035273
        k(   83) = (   0.1111111  -0.2222222   0.1428571), wk =   0.0035273
        k(   84) = (   0.1111111  -0.2222222   0.2857143), wk =   0.0035273
        k(   85) = (   0.1111111  -0.2222222   0.4285714), wk =   0.0035273
        k(   86) = (   0.1111111  -0.2222222  -0.4285714), wk =   0.0035273
        k(   87) = (   0.1111111  -0.2222222  -0.2857143), wk =   0.0035273
        k(   88) = (   0.1111111  -0.2222222  -0.1428571), wk =   0.0035273
        k(   89) = (   0.1111111  -0.1111111  -0.0000000), wk =   0.0035273
        k(   90) = (   0.1111111  -0.1111111   0.1428571), wk =   0.0035273
        k(   91) = (   0.1111111  -0.1111111   0.2857143), wk =   0.0035273
        k(   92) = (   0.1111111  -0.1111111   0.4285714), wk =   0.0035273
        k(   93) = (   0.1111111  -0.1111111  -0.4285714), wk =   0.0035273
        k(   94) = (   0.1111111  -0.1111111  -0.2857143), wk =   0.0035273
        k(   95) = (   0.1111111  -0.1111111  -0.1428571), wk =   0.0035273
        k(   96) = (   0.2222222  -0.0000000   0.0000000), wk =   0.0035273
        k(   97) = (   0.2222222  -0.0000000   0.1428571), wk =   0.0035273
        k(   98) = (   0.2222222  -0.0000000   0.2857143), wk =   0.0035273
        k(   99) = (   0.2222222  -0.0000000   0.4285714), wk =   0.0035273
        k(  100) = (   0.2222222  -0.0000000  -0.4285714), wk =   0.0035273
        k(  101) = (   0.2222222  -0.0000000  -0.2857143), wk =   0.0035273
        k(  102) = (   0.2222222  -0.0000000  -0.1428571), wk =   0.0035273
        k(  103) = (   0.2222222   0.1111111  -0.0000000), wk =   0.0035273
        k(  104) = (   0.2222222   0.1111111   0.1428571), wk =   0.0035273
        k(  105) = (   0.2222222   0.1111111   0.2857143), wk =   0.0035273
        k(  106) = (   0.2222222   0.1111111   0.4285714), wk =   0.0035273
        k(  107) = (   0.2222222   0.1111111  -0.4285714), wk =   0.0035273
        k(  108) = (   0.2222222   0.1111111  -0.2857143), wk =   0.0035273
        k(  109) = (   0.2222222   0.1111111  -0.1428571), wk =   0.0035273
        k(  110) = (   0.2222222   0.2222222  -0.0000000), wk =   0.0035273
        k(  111) = (   0.2222222   0.2222222   0.1428571), wk =   0.0035273
        k(  112) = (   0.2222222   0.2222222   0.2857143), wk =   0.0035273
        k(  113) = (   0.2222222   0.2222222   0.4285714), wk =   0.0035273
        k(  114) = (   0.2222222   0.2222222  -0.4285714), wk =   0.0035273
        k(  115) = (   0.2222222   0.2222222  -0.2857143), wk =   0.0035273
        k(  116) = (   0.2222222   0.2222222  -0.1428571), wk =   0.0035273
        k(  117) = (   0.2222222   0.3333333   0.0000000), wk =   0.0035273
        k(  118) = (   0.2222222   0.3333333   0.1428571), wk =   0.0035273
        k(  119) = (   0.2222222   0.3333333   0.2857143), wk =   0.0035273
        k(  120) = (   0.2222222   0.3333333   0.4285714), wk =   0.0035273
        k(  121) = (   0.2222222   0.3333333  -0.4285714), wk =   0.0035273
        k(  122) = (   0.2222222   0.3333333  -0.2857143), wk =   0.0035273
        k(  123) = (   0.2222222   0.3333333  -0.1428571), wk =   0.0035273
        k(  124) = (   0.2222222   0.4444444   0.0000000), wk =   0.0035273
        k(  125) = (   0.2222222   0.4444444   0.1428571), wk =   0.0035273
        k(  126) = (   0.2222222   0.4444444   0.2857143), wk =   0.0035273
        k(  127) = (   0.2222222   0.4444444   0.4285714), wk =   0.0035273
        k(  128) = (   0.2222222   0.4444444  -0.4285714), wk =   0.0035273
        k(  129) = (   0.2222222   0.4444444  -0.2857143), wk =   0.0035273
        k(  130) = (   0.2222222   0.4444444  -0.1428571), wk =   0.0035273
        k(  131) = (   0.2222222  -0.4444444  -0.0000000), wk =   0.0035273
        k(  132) = (   0.2222222  -0.4444444   0.1428571), wk =   0.0035273
        k(  133) = (   0.2222222  -0.4444444   0.2857143), wk =   0.0035273
        k(  134) = (   0.2222222  -0.4444444   0.4285714), wk =   0.0035273
        k(  135) = (   0.2222222  -0.4444444  -0.4285714), wk =   0.0035273
        k(  136) = (   0.2222222  -0.4444444  -0.2857143), wk =   0.0035273
        k(  137) = (   0.2222222  -0.4444444  -0.1428571), wk =   0.0035273
        k(  138) = (   0.2222222  -0.3333333  -0.0000000), wk =   0.0035273
        k(  139) = (   0.2222222  -0.3333333   0.1428571), wk =   0.0035273
        k(  140) = (   0.2222222  -0.3333333   0.2857143), wk =   0.0035273
        k(  141) = (   0.2222222  -0.3333333   0.4285714), wk =   0.0035273
        k(  142) = (   0.2222222  -0.3333333  -0.4285714), wk =   0.0035273
        k(  143) = (   0.2222222  -0.3333333  -0.2857143), wk =   0.0035273
        k(  144) = (   0.2222222  -0.3333333  -0.1428571), wk =   0.0035273
        k(  145) = (   0.2222222  -0.2222222  -0.0000000), wk =   0.0035273
        k(  146) = (   0.2222222  -0.2222222   0.1428571), wk =   0.0035273
        k(  147) = (   0.2222222  -0.2222222   0.2857143), wk =   0.0035273
        k(  148) = (   0.2222222  -0.2222222   0.4285714), wk =   0.0035273
        k(  149) = (   0.2222222  -0.2222222  -0.4285714), wk =   0.0035273
        k(  150) = (   0.2222222  -0.2222222  -0.2857143), wk =   0.0035273
        k(  151) = (   0.2222222  -0.2222222  -0.1428571), wk =   0.0035273
        k(  152) = (   0.2222222  -0.1111111   0.0000000), wk =   0.0035273
        k(  153) = (   0.2222222  -0.1111111   0.1428571), wk =   0.0035273
        k(  154) = (   0.2222222  -0.1111111   0.2857143), wk =   0.0035273
        k(  155) = (   0.2222222  -0.1111111   0.4285714), wk =   0.0035273
        k(  156) = (   0.2222222  -0.1111111  -0.4285714), wk =   0.0035273
        k(  157) = (   0.2222222  -0.1111111  -0.2857143), wk =   0.0035273
        k(  158) = (   0.2222222  -0.1111111  -0.1428571), wk =   0.0035273
        k(  159) = (   0.3333333  -0.0000000   0.0000000), wk =   0.0035273
        k(  160) = (   0.3333333  -0.0000000   0.1428571), wk =   0.0035273
        k(  161) = (   0.3333333  -0.0000000   0.2857143), wk =   0.0035273
        k(  162) = (   0.3333333  -0.0000000   0.4285714), wk =   0.0035273
        k(  163) = (   0.3333333  -0.0000000  -0.4285714), wk =   0.0035273
        k(  164) = (   0.3333333  -0.0000000  -0.2857143), wk =   0.0035273
        k(  165) = (   0.3333333  -0.0000000  -0.1428571), wk =   0.0035273
        k(  166) = (   0.3333333   0.1111111   0.0000000), wk =   0.0035273
        k(  167) = (   0.3333333   0.1111111   0.1428571), wk =   0.0035273
        k(  168) = (   0.3333333   0.1111111   0.2857143), wk =   0.0035273
        k(  169) = (   0.3333333   0.1111111   0.4285714), wk =   0.0035273
        k(  170) = (   0.3333333   0.1111111  -0.4285714), wk =   0.0035273
        k(  171) = (   0.3333333   0.1111111  -0.2857143), wk =   0.0035273
        k(  172) = (   0.3333333   0.1111111  -0.1428571), wk =   0.0035273
        k(  173) = (   0.3333333   0.2222222   0.0000000), wk =   0.0035273
        k(  174) = (   0.3333333   0.2222222   0.1428571), wk =   0.0035273
        k(  175) = (   0.3333333   0.2222222   0.2857143), wk =   0.0035273
        k(  176) = (   0.3333333   0.2222222   0.4285714), wk =   0.0035273
        k(  177) = (   0.3333333   0.2222222  -0.4285714), wk =   0.0035273
        k(  178) = (   0.3333333   0.2222222  -0.2857143), wk =   0.0035273
        k(  179) = (   0.3333333   0.2222222  -0.1428571), wk =   0.0035273
        k(  180) = (   0.3333333   0.3333333   0.0000000), wk =   0.0035273
        k(  181) = (   0.3333333   0.3333333   0.1428571), wk =   0.0035273
        k(  182) = (   0.3333333   0.3333333   0.2857143), wk =   0.0035273
        k(  183) = (   0.3333333   0.3333333   0.4285714), wk =   0.0035273
        k(  184) = (   0.3333333   0.3333333  -0.4285714), wk =   0.0035273
        k(  185) = (   0.3333333   0.3333333  -0.2857143), wk =   0.0035273
        k(  186) = (   0.3333333   0.3333333  -0.1428571), wk =   0.0035273
        k(  187) = (   0.3333333   0.4444444   0.0000000), wk =   0.0035273
        k(  188) = (   0.3333333   0.4444444   0.1428571), wk =   0.0035273
        k(  189) = (   0.3333333   0.4444444   0.2857143), wk =   0.0035273
        k(  190) = (   0.3333333   0.4444444   0.4285714), wk =   0.0035273
        k(  191) = (   0.3333333   0.4444444  -0.4285714), wk =   0.0035273
        k(  192) = (   0.3333333   0.4444444  -0.2857143), wk =   0.0035273
        k(  193) = (   0.3333333   0.4444444  -0.1428571), wk =   0.0035273
        k(  194) = (   0.3333333  -0.4444444   0.0000000), wk =   0.0035273
        k(  195) = (   0.3333333  -0.4444444   0.1428571), wk =   0.0035273
        k(  196) = (   0.3333333  -0.4444444   0.2857143), wk =   0.0035273
        k(  197) = (   0.3333333  -0.4444444   0.4285714), wk =   0.0035273
        k(  198) = (   0.3333333  -0.4444444  -0.4285714), wk =   0.0035273
        k(  199) = (   0.3333333  -0.4444444  -0.2857143), wk =   0.0035273
        k(  200) = (   0.3333333  -0.4444444  -0.1428571), wk =   0.0035273
        k(  201) = (   0.3333333  -0.3333333  -0.0000000), wk =   0.0035273
        k(  202) = (   0.3333333  -0.3333333   0.1428571), wk =   0.0035273
        k(  203) = (   0.3333333  -0.3333333   0.2857143), wk =   0.0035273
        k(  204) = (   0.3333333  -0.3333333   0.4285714), wk =   0.0035273
        k(  205) = (   0.3333333  -0.3333333  -0.4285714), wk =   0.0035273
        k(  206) = (   0.3333333  -0.3333333  -0.2857143), wk =   0.0035273
        k(  207) = (   0.3333333  -0.3333333  -0.1428571), wk =   0.0035273
        k(  208) = (   0.3333333  -0.2222222   0.0000000), wk =   0.0035273
        k(  209) = (   0.3333333  -0.2222222   0.1428571), wk =   0.0035273
        k(  210) = (   0.3333333  -0.2222222   0.2857143), wk =   0.0035273
        k(  211) = (   0.3333333  -0.2222222   0.4285714), wk =   0.0035273
        k(  212) = (   0.3333333  -0.2222222  -0.4285714), wk =   0.0035273
        k(  213) = (   0.3333333  -0.2222222  -0.2857143), wk =   0.0035273
        k(  214) = (   0.3333333  -0.2222222  -0.1428571), wk =   0.0035273
        k(  215) = (   0.3333333  -0.1111111   0.0000000), wk =   0.0035273
        k(  216) = (   0.3333333  -0.1111111   0.1428571), wk =   0.0035273
        k(  217) = (   0.3333333  -0.1111111   0.2857143), wk =   0.0035273
        k(  218) = (   0.3333333  -0.1111111   0.4285714), wk =   0.0035273
        k(  219) = (   0.3333333  -0.1111111  -0.4285714), wk =   0.0035273
        k(  220) = (   0.3333333  -0.1111111  -0.2857143), wk =   0.0035273
        k(  221) = (   0.3333333  -0.1111111  -0.1428571), wk =   0.0035273
        k(  222) = (   0.4444444  -0.0000000   0.0000000), wk =   0.0035273
        k(  223) = (   0.4444444  -0.0000000   0.1428571), wk =   0.0035273
        k(  224) = (   0.4444444  -0.0000000   0.2857143), wk =   0.0035273
        k(  225) = (   0.4444444  -0.0000000   0.4285714), wk =   0.0035273
        k(  226) = (   0.4444444  -0.0000000  -0.4285714), wk =   0.0035273
        k(  227) = (   0.4444444  -0.0000000  -0.2857143), wk =   0.0035273
        k(  228) = (   0.4444444  -0.0000000  -0.1428571), wk =   0.0035273
        k(  229) = (   0.4444444   0.1111111   0.0000000), wk =   0.0035273
        k(  230) = (   0.4444444   0.1111111   0.1428571), wk =   0.0035273
        k(  231) = (   0.4444444   0.1111111   0.2857143), wk =   0.0035273
        k(  232) = (   0.4444444   0.1111111   0.4285714), wk =   0.0035273
        k(  233) = (   0.4444444   0.1111111  -0.4285714), wk =   0.0035273
        k(  234) = (   0.4444444   0.1111111  -0.2857143), wk =   0.0035273
        k(  235) = (   0.4444444   0.1111111  -0.1428571), wk =   0.0035273
        k(  236) = (   0.4444444   0.2222222  -0.0000000), wk =   0.0035273
        k(  237) = (   0.4444444   0.2222222   0.1428571), wk =   0.0035273
        k(  238) = (   0.4444444   0.2222222   0.2857143), wk =   0.0035273
        k(  239) = (   0.4444444   0.2222222   0.4285714), wk =   0.0035273
        k(  240) = (   0.4444444   0.2222222  -0.4285714), wk =   0.0035273
        k(  241) = (   0.4444444   0.2222222  -0.2857143), wk =   0.0035273
        k(  242) = (   0.4444444   0.2222222  -0.1428571), wk =   0.0035273
        k(  243) = (   0.4444444   0.3333333  -0.0000000), wk =   0.0035273
        k(  244) = (   0.4444444   0.3333333   0.1428571), wk =   0.0035273
        k(  245) = (   0.4444444   0.3333333   0.2857143), wk =   0.0035273
        k(  246) = (   0.4444444   0.3333333   0.4285714), wk =   0.0035273
        k(  247) = (   0.4444444   0.3333333  -0.4285714), wk =   0.0035273
        k(  248) = (   0.4444444   0.3333333  -0.2857143), wk =   0.0035273
        k(  249) = (   0.4444444   0.3333333  -0.1428571), wk =   0.0035273
        k(  250) = (   0.4444444   0.4444444  -0.0000000), wk =   0.0035273
        k(  251) = (   0.4444444   0.4444444   0.1428571), wk =   0.0035273
        k(  252) = (   0.4444444   0.4444444   0.2857143), wk =   0.0035273
        k(  253) = (   0.4444444   0.4444444   0.4285714), wk =   0.0035273
        k(  254) = (   0.4444444   0.4444444  -0.4285714), wk =   0.0035273
        k(  255) = (   0.4444444   0.4444444  -0.2857143), wk =   0.0035273
        k(  256) = (   0.4444444   0.4444444  -0.1428571), wk =   0.0035273
        k(  257) = (   0.4444444  -0.4444444  -0.0000000), wk =   0.0035273
        k(  258) = (   0.4444444  -0.4444444   0.1428571), wk =   0.0035273
        k(  259) = (   0.4444444  -0.4444444   0.2857143), wk =   0.0035273
        k(  260) = (   0.4444444  -0.4444444   0.4285714), wk =   0.0035273
        k(  261) = (   0.4444444  -0.4444444  -0.4285714), wk =   0.0035273
        k(  262) = (   0.4444444  -0.4444444  -0.2857143), wk =   0.0035273
        k(  263) = (   0.4444444  -0.4444444  -0.1428571), wk =   0.0035273
        k(  264) = (   0.4444444  -0.3333333  -0.0000000), wk =   0.0035273
        k(  265) = (   0.4444444  -0.3333333   0.1428571), wk =   0.0035273
        k(  266) = (   0.4444444  -0.3333333   0.2857143), wk =   0.0035273
        k(  267) = (   0.4444444  -0.3333333   0.4285714), wk =   0.0035273
        k(  268) = (   0.4444444  -0.3333333  -0.4285714), wk =   0.0035273
        k(  269) = (   0.4444444  -0.3333333  -0.2857143), wk =   0.0035273
        k(  270) = (   0.4444444  -0.3333333  -0.1428571), wk =   0.0035273
        k(  271) = (   0.4444444  -0.2222222   0.0000000), wk =   0.0035273
        k(  272) = (   0.4444444  -0.2222222   0.1428571), wk =   0.0035273
        k(  273) = (   0.4444444  -0.2222222   0.2857143), wk =   0.0035273
        k(  274) = (   0.4444444  -0.2222222   0.4285714), wk =   0.0035273
        k(  275) = (   0.4444444  -0.2222222  -0.4285714), wk =   0.0035273
        k(  276) = (   0.4444444  -0.2222222  -0.2857143), wk =   0.0035273
        k(  277) = (   0.4444444  -0.2222222  -0.1428571), wk =   0.0035273
        k(  278) = (   0.4444444  -0.1111111  -0.0000000), wk =   0.0035273
        k(  279) = (   0.4444444  -0.1111111   0.1428571), wk =   0.0035273
        k(  280) = (   0.4444444  -0.1111111   0.2857143), wk =   0.0035273
        k(  281) = (   0.4444444  -0.1111111   0.4285714), wk =   0.0035273
        k(  282) = (   0.4444444  -0.1111111  -0.4285714), wk =   0.0035273
        k(  283) = (   0.4444444  -0.1111111  -0.2857143), wk =   0.0035273
        k(  284) = (   0.4444444  -0.1111111  -0.1428571), wk =   0.0035273

     Dense  grid:   454975 G-vectors     FFT dimensions: ( 100, 100, 120)

     Smooth grid:    87457 G-vectors     FFT dimensions: (  60,  60,  72)

     Dynamical RAM for                 wfc:      11.02 MB

     Dynamical RAM for     wfc (w. buffer):    6270.65 MB

     Dynamical RAM for             U proj.:       0.83 MB

     Dynamical RAM for  U proj. (w. buff.):     475.05 MB

     Dynamical RAM for           str. fact:      20.83 MB

     Dynamical RAM for           local pot:       0.00 MB

     Dynamical RAM for          nlocal pot:      22.71 MB

     Dynamical RAM for                qrad:      13.44 MB

     Dynamical RAM for          rho,v,vnew:      96.59 MB

     Dynamical RAM for               rhoin:      32.20 MB

     Dynamical RAM for            rho*nmix:     222.16 MB

     Dynamical RAM for           G-vectors:      26.70 MB

     Dynamical RAM for          h,s,v(r/c):       0.20 MB

     Dynamical RAM for          <psi|beta>:       0.14 MB

     Dynamical RAM for      wfcinit/wfcrot:      22.14 MB

     Dynamical RAM for           addusdens:    1353.76 MB

     Dynamical RAM for          addusforce:    1451.02 MB

     Dynamical RAM for         addusstress:    1405.83 MB

     Estimated static dynamical RAM per process >       6.88 GB

     Estimated max dynamical RAM per process >       8.51 GB

     Check: negative core charge=   -0.000009
     Generating pointlists ...
     new r_m :   0.1381 (alat units)  1.5075 (a.u.) for type    1
     new r_m :   0.1380 (alat units)  1.5066 (a.u.) for type    2
     new r_m :   0.1380 (alat units)  1.5066 (a.u.) for type    3

     Initial potential from superposition of free atoms

     starting charge     107.4997, renormalised to     110.0000

     HUBBARD ENERGY =    0.2293  (Ry)

     STARTING HUBBARD OCCUPATIONS:

     =================== HUBBARD OCCUPATIONS ===================
     ------------------------ ATOM    4 ------------------------
     Tr[ns(  4)] (up, down, total) =   5.00000  2.00000  7.00000
     Atomic magnetic moment for atom   4 =   3.00000
     SPIN  1
     eigenvalues:
       1.000  1.000  1.000  1.000  1.000
     eigenvectors (columns):
       1.000  0.000  0.000  0.000  0.000
       0.000  1.000  0.000  0.000  0.000
       0.000  0.000  1.000  0.000  0.000
       0.000  0.000  0.000  1.000  0.000
       0.000  0.000  0.000  0.000  1.000
     occupation matrix ns (before diag.):
       1.000  0.000  0.000  0.000  0.000
       0.000  1.000  0.000  0.000  0.000
       0.000  0.000  1.000  0.000  0.000
       0.000  0.000  0.000  1.000  0.000
       0.000  0.000  0.000  0.000  1.000
     SPIN  2
     eigenvalues:
       0.400  0.400  0.400  0.400  0.400
     eigenvectors (columns):
       1.000  0.000  0.000  0.000  0.000
       0.000  1.000  0.000  0.000  0.000
       0.000  0.000  1.000  0.000  0.000
       0.000  0.000  0.000  1.000  0.000
       0.000  0.000  0.000  0.000  1.000
     occupation matrix ns (before diag.):
       0.400  0.000  0.000  0.000  0.000
       0.000  0.400  0.000  0.000  0.000
       0.000  0.000  0.400  0.000  0.000
       0.000  0.000  0.000  0.400  0.000
       0.000  0.000  0.000  0.000  0.400

     Number of occupied Hubbard levels =    7.0000

     Atomic wfc used for Hubbard projectors are orthogonalized

     Starting wfcs are   84 randomized atomic wfcs
     Checking if some PAW data can be deallocated... 

     total cpu time spent up to now is       15.2 secs

     Self-consistent Calculation
[tb_dev] Currently allocated     9.95E-01 Mbytes, locked:    0 /   3
[tb_pin] Currently allocated     0.00E+00 Mbytes, locked:    0 /   0

     iteration #  1     ecut=    65.00 Ry     beta= 0.70
     CG style diagonalization

---- Real-time Memory Report at c_bands before calling an iterative solver
          7586 MiB given to the printing process from OS
             0 MiB allocation reported by mallinfo(arena+hblkhd)
        475172 MiB available memory on the node where the printing process lives
     GPU memory used/free/total (MiB): 3298 / 61646 / 64944
------------------
     ethr =  1.00E-02,  avg # of iterations =  2.3

     =================== HUBBARD OCCUPATIONS ===================
     ------------------------ ATOM    4 ------------------------
     Tr[ns(  4)] (up, down, total) =   4.95272  0.34387  5.29659
     Atomic magnetic moment for atom   4 =   4.60886
     SPIN  1
     eigenvalues:
       0.987  0.987  0.989  0.995  0.995
     eigenvectors (columns):
      -0.002  0.002 -1.000 -0.001 -0.017
       0.316 -0.444 -0.014 -0.370  0.752
      -0.441 -0.317 -0.007  0.754  0.369
       0.685  0.487 -0.005  0.487  0.239
      -0.487  0.683 -0.006 -0.238  0.490
     occupation matrix ns (before diag.):
       0.989 -0.000 -0.000 -0.000 -0.000
      -0.000  0.992  0.000 -0.000  0.004
      -0.000  0.000  0.992  0.004  0.000
      -0.000 -0.000  0.004  0.989  0.000
      -0.000  0.004  0.000  0.000  0.989
     SPIN  2
     eigenvalues:
       0.035  0.038  0.038  0.115  0.117
     eigenvectors (columns):
       0.998  0.007  0.062 -0.002  0.000
       0.035 -0.400 -0.527 -0.670 -0.335
       0.021  0.527 -0.400 -0.334  0.671
      -0.025 -0.598  0.451 -0.295  0.593
      -0.041  0.452  0.596 -0.594 -0.295
     occupation matrix ns (before diag.):
       0.035 -0.000 -0.000  0.000  0.000
      -0.000  0.082 -0.000 -0.000  0.038
      -0.000 -0.000  0.082  0.039 -0.000
       0.000 -0.000  0.039  0.072 -0.000
       0.000  0.038 -0.000 -0.000  0.072

     Number of occupied Hubbard levels =    5.2966

     HUBBARD ENERGY =    0.0687  (Ry)

     total cpu time spent up to now is      156.7 secs

     total energy              =   -1250.96023485 Ry
     estimated scf accuracy    <      13.55499722 Ry

     total magnetization       =    13.99 Bohr mag/cell
     absolute magnetization    =    14.24 Bohr mag/cell
[tb_dev] Currently allocated     0.00E+00 Mbytes, locked:    0 /   0
[tb_pin] Currently allocated     0.00E+00 Mbytes, locked:    0 /   0

     iteration #  2     ecut=    65.00 Ry     beta= 0.70
     CG style diagonalization

---- Real-time Memory Report at c_bands before calling an iterative solver
          7644 MiB given to the printing process from OS
             0 MiB allocation reported by mallinfo(arena+hblkhd)
        466846 MiB available memory on the node where the printing process lives
     GPU memory used/free/total (MiB): 3380 / 61564 / 64944
------------------
     ethr =  1.00E-02,  avg # of iterations =  4.9

     =================== HUBBARD OCCUPATIONS ===================
     ------------------------ ATOM    4 ------------------------
     Tr[ns(  4)] (up, down, total) =   4.87190  4.89043  9.76234
     Atomic magnetic moment for atom   4 =  -0.01853
     SPIN  1
     eigenvalues:
       0.971  0.972  0.972  0.978  0.978
     eigenvectors (columns):
       1.000  0.016  0.004 -0.002 -0.000
       0.014 -0.704 -0.463  0.319  0.433
       0.005 -0.464  0.703  0.433 -0.322
      -0.002  0.295 -0.451  0.677 -0.501
      -0.007  0.449  0.296  0.503  0.676
     occupation matrix ns (before diag.):
       0.971 -0.000 -0.000 -0.000 -0.000
      -0.000  0.974 -0.000 -0.000  0.003
      -0.000 -0.000  0.974  0.003  0.000
      -0.000 -0.000  0.003  0.976 -0.000
      -0.000  0.003  0.000 -0.000  0.976
     SPIN  2
     eigenvalues:
       0.976  0.976  0.976  0.982  0.982
     eigenvectors (columns):
       0.022  0.119  0.993 -0.010 -0.001
       0.521 -0.832  0.088 -0.007 -0.169
      -0.835 -0.516  0.079 -0.172  0.017
      -0.150 -0.085  0.024  0.982 -0.071
       0.094 -0.140  0.016  0.072  0.983
     occupation matrix ns (before diag.):
       0.976  0.000  0.000 -0.000 -0.000
       0.000  0.976  0.000  0.000 -0.001
       0.000  0.000  0.976 -0.001  0.000
      -0.000  0.000 -0.001  0.981  0.000
      -0.000 -0.001  0.000  0.000  0.981

     Number of occupied Hubbard levels =    9.7623

     HUBBARD ENERGY =    0.1708  (Ry)

     total cpu time spent up to now is      396.7 secs

     total energy              =   -1230.66968850 Ry
     estimated scf accuracy    <     149.03914838 Ry

     total magnetization       =     2.83 Bohr mag/cell
     absolute magnetization    =     2.91 Bohr mag/cell
[tb_dev] Currently allocated     0.00E+00 Mbytes, locked:    0 /   0
[tb_pin] Currently allocated     0.00E+00 Mbytes, locked:    0 /   0

     iteration #  3     ecut=    65.00 Ry     beta= 0.70
     CG style diagonalization

---- Real-time Memory Report at c_bands before calling an iterative solver
          7654 MiB given to the printing process from OS
             0 MiB allocation reported by mallinfo(arena+hblkhd)
        464743 MiB available memory on the node where the printing process lives
     GPU memory used/free/total (MiB): 3380 / 61564 / 64944
------------------
     ethr =  1.00E-02,  avg # of iterations =  4.1

     =================== HUBBARD OCCUPATIONS ===================
     ------------------------ ATOM    4 ------------------------
     Tr[ns(  4)] (up, down, total) =   4.98255  4.58513  9.56768
     Atomic magnetic moment for atom   4 =   0.39742
     SPIN  1
     eigenvalues:
       0.995  0.995  0.997  0.998  0.998
     eigenvectors (columns):
       0.004 -0.006  1.000 -0.015  0.001
       0.679 -0.521 -0.012 -0.428 -0.291
      -0.510 -0.682 -0.007 -0.280  0.443
      -0.324 -0.413  0.007  0.472 -0.709
       0.418 -0.306  0.007  0.718  0.465
     occupation matrix ns (before diag.):
       0.997 -0.000  0.000 -0.000 -0.000
      -0.000  0.996 -0.000  0.000 -0.001
       0.000 -0.000  0.996 -0.001  0.000
      -0.000  0.000 -0.001  0.997  0.000
      -0.000 -0.001  0.000  0.000  0.997
     SPIN  2
     eigenvalues:
       0.802  0.816  0.987  0.990  0.990
     eigenvectors (columns):
       0.000 -0.002 -0.109 -0.911 -0.397
       0.635  0.391 -0.605 -0.048  0.274
       0.384 -0.631 -0.276  0.274 -0.550
       0.352 -0.575  0.297 -0.299  0.607
       0.571  0.344  0.676  0.053 -0.309
     occupation matrix ns (before diag.):
       0.990 -0.000 -0.000 -0.000  0.000
      -0.000  0.887 -0.003 -0.002 -0.090
      -0.000 -0.003  0.893 -0.088 -0.003
      -0.000 -0.002 -0.088  0.909 -0.004
       0.000 -0.090 -0.003 -0.004  0.907

     Number of occupied Hubbard levels =    9.5677

     HUBBARD ENERGY =    0.1966  (Ry)

     total cpu time spent up to now is      589.9 secs

     total energy              =   -1254.62609238 Ry
     estimated scf accuracy    <      13.22788834 Ry

     total magnetization       =     7.99 Bohr mag/cell
     absolute magnetization    =     8.12 Bohr mag/cell
[tb_dev] Currently allocated     0.00E+00 Mbytes, locked:    0 /   0
[tb_pin] Currently allocated     0.00E+00 Mbytes, locked:    0 /   0

     iteration #  4     ecut=    65.00 Ry     beta= 0.70
     CG style diagonalization

---- Real-time Memory Report at c_bands before calling an iterative solver
          7659 MiB given to the printing process from OS
             0 MiB allocation reported by mallinfo(arena+hblkhd)
        465266 MiB available memory on the node where the printing process lives
     GPU memory used/free/total (MiB): 3380 / 61564 / 64944
------------------
     ethr =  1.00E-02,  avg # of iterations =  3.1

     =================== HUBBARD OCCUPATIONS ===================
     ------------------------ ATOM    4 ------------------------
     Tr[ns(  4)] (up, down, total) =   4.98641  2.33085  7.31726
     Atomic magnetic moment for atom   4 =   2.65556
     SPIN  1
     eigenvalues:
       0.995  0.996  0.998  0.998  0.998
     eigenvectors (columns):
      -0.007 -0.015 -1.000 -0.019 -0.014
      -0.490 -0.758  0.025 -0.320 -0.286
       0.731 -0.507  0.002 -0.255  0.378
       0.394 -0.229 -0.000  0.559 -0.693
      -0.265 -0.339 -0.014  0.721  0.544
     occupation matrix ns (before diag.):
       0.998 -0.000 -0.000 -0.000 -0.000
      -0.000  0.996  0.000  0.000 -0.001
      -0.000  0.000  0.996 -0.001  0.000
      -0.000  0.000 -0.001  0.998  0.000
      -0.000 -0.001  0.000  0.000  0.998
     SPIN  2
     eigenvalues:
       0.397  0.402  0.434  0.549  0.549
     eigenvectors (columns):
      -0.044  0.050  0.997 -0.026 -0.034
       0.496  0.160  0.049  0.351  0.777
       0.184 -0.476  0.040  0.775 -0.372
      -0.273  0.813 -0.047  0.470 -0.202
      -0.802 -0.290  0.001  0.236  0.465
     occupation matrix ns (before diag.):
       0.434 -0.004  0.000 -0.002 -0.003
      -0.004  0.508 -0.003  0.001  0.067
       0.000 -0.003  0.510  0.065  0.002
      -0.002  0.001  0.065  0.440  0.001
      -0.003  0.067  0.002  0.001  0.439

     Number of occupied Hubbard levels =    7.3173

     HUBBARD ENERGY =    0.2091  (Ry)

     total cpu time spent up to now is      720.3 secs

     total energy              =   -1259.58035307 Ry
     estimated scf accuracy    <       0.97828635 Ry

     total magnetization       =    12.01 Bohr mag/cell
     absolute magnetization    =    12.07 Bohr mag/cell
[tb_dev] Currently allocated     0.00E+00 Mbytes, locked:    0 /   0
[tb_pin] Currently allocated     0.00E+00 Mbytes, locked:    0 /   0

     iteration #  5     ecut=    65.00 Ry     beta= 0.70
     CG style diagonalization

---- Real-time Memory Report at c_bands before calling an iterative solver
          7666 MiB given to the printing process from OS
             0 MiB allocation reported by mallinfo(arena+hblkhd)
        468887 MiB available memory on the node where the printing process lives
     GPU memory used/free/total (MiB): 3380 / 61564 / 64944
------------------
     ethr =  8.89E-04,  avg # of iterations =  3.7

     =================== HUBBARD OCCUPATIONS ===================
     ------------------------ ATOM    4 ------------------------
     Tr[ns(  4)] (up, down, total) =   4.98567  1.39644  6.38212
     Atomic magnetic moment for atom   4 =   3.58923
     SPIN  1
     eigenvalues:
       0.995  0.996  0.998  0.998  0.998
     eigenvectors (columns):
       0.006 -0.002  0.000  0.200  0.980
      -0.589 -0.668  0.205 -0.397  0.083
      -0.661  0.575  0.425  0.223 -0.041
      -0.357  0.324 -0.774 -0.401  0.085
      -0.299 -0.342 -0.421  0.769 -0.156
     occupation matrix ns (before diag.):
       0.998  0.000  0.000  0.000 -0.000
       0.000  0.996 -0.000 -0.000 -0.001
       0.000 -0.000  0.996 -0.001 -0.000
       0.000 -0.000 -0.001  0.998 -0.000
      -0.000 -0.001 -0.000 -0.000  0.998
     SPIN  2
     eigenvalues:
       0.176  0.181  0.222  0.407  0.411
     eigenvectors (columns):
       0.004  0.088  0.996 -0.013 -0.022
      -0.563  0.207  0.005  0.526  0.603
      -0.210 -0.553  0.053 -0.610  0.525
       0.279  0.752 -0.065 -0.446  0.392
       0.749 -0.280  0.037  0.391  0.455
     occupation matrix ns (before diag.):
       0.222 -0.004  0.001 -0.003 -0.002
      -0.004  0.325 -0.000  0.002  0.111
       0.001 -0.000  0.328  0.109  0.002
      -0.003  0.002  0.109  0.261  0.000
      -0.002  0.111  0.002  0.000  0.260

     Number of occupied Hubbard levels =    6.3821

     HUBBARD ENERGY =    0.2119  (Ry)

     total cpu time spent up to now is      890.5 secs

     total energy              =   -1260.08504746 Ry
     estimated scf accuracy    <       0.33436639 Ry

     total magnetization       =    12.90 Bohr mag/cell
     absolute magnetization    =    12.96 Bohr mag/cell
[tb_dev] Currently allocated     0.00E+00 Mbytes, locked:    0 /   0
[tb_pin] Currently allocated     0.00E+00 Mbytes, locked:    0 /   0

     iteration #  6     ecut=    65.00 Ry     beta= 0.70
     CG style diagonalization

---- Real-time Memory Report at c_bands before calling an iterative solver
          7672 MiB given to the printing process from OS
             0 MiB allocation reported by mallinfo(arena+hblkhd)
        464760 MiB available memory on the node where the printing process lives
     GPU memory used/free/total (MiB): 3380 / 61564 / 64944
------------------
     c_bands:  1 eigenvalues not converged
     c_bands:  1 eigenvalues not converged
     c_bands:  1 eigenvalues not converged
     c_bands:  1 eigenvalues not converged
     c_bands:  1 eigenvalues not converged
     c_bands:  1 eigenvalues not converged
     c_bands:  1 eigenvalues not converged
     c_bands:  1 eigenvalues not converged
     c_bands:  1 eigenvalues not converged
     c_bands:  1 eigenvalues not converged
     c_bands:  1 eigenvalues not converged
     c_bands:  1 eigenvalues not converged
     c_bands:  1 eigenvalues not converged
     c_bands:  2 eigenvalues not converged
     c_bands:  1 eigenvalues not converged
     c_bands:  1 eigenvalues not converged
     c_bands:  1 eigenvalues not converged
     c_bands:  1 eigenvalues not converged
     c_bands:  1 eigenvalues not converged
     c_bands:  1 eigenvalues not converged
     c_bands:  1 eigenvalues not converged
     c_bands:  1 eigenvalues not converged
     c_bands:  1 eigenvalues not converged
     c_bands:  1 eigenvalues not converged
     c_bands:  1 eigenvalues not converged
     c_bands:  1 eigenvalues not converged
     c_bands:  1 eigenvalues not converged
     c_bands:  1 eigenvalues not converged
     c_bands:  1 eigenvalues not converged
     ethr =  3.04E-04,  avg # of iterations =  3.8

     =================== HUBBARD OCCUPATIONS ===================
     ------------------------ ATOM    4 ------------------------
     Tr[ns(  4)] (up, down, total) =   4.96515  1.44530  6.41045
     Atomic magnetic moment for atom   4 =   3.51985
     SPIN  1
     eigenvalues:
       0.984  0.987  0.998  0.998  0.998
     eigenvectors (columns):
       0.007  0.006  0.737  0.591 -0.328
       0.160  0.791  0.333 -0.479 -0.097
      -0.776  0.161 -0.221 -0.032 -0.567
      -0.597  0.121  0.289  0.054  0.736
       0.123  0.578 -0.462  0.646  0.139
     occupation matrix ns (before diag.):
       0.998 -0.000  0.000 -0.000  0.000
      -0.000  0.991  0.000  0.000 -0.005
       0.000  0.000  0.989 -0.007  0.000
      -0.000  0.000 -0.007  0.993  0.000
       0.000 -0.005  0.000  0.000  0.994
     SPIN  2
     eigenvalues:
       0.172  0.179  0.232  0.429  0.434
     eigenvectors (columns):
       0.025  0.029  0.999 -0.012 -0.015
       0.588 -0.145  0.005  0.471  0.641
      -0.132 -0.601  0.021  0.628 -0.477
       0.188  0.765 -0.026  0.496 -0.363
      -0.775  0.178  0.026  0.371  0.479
     occupation matrix ns (before diag.):
       0.232 -0.004  0.001 -0.001 -0.001
      -0.004  0.337 -0.004 -0.002  0.125
       0.001 -0.004  0.335  0.122 -0.001
      -0.001 -0.002  0.122  0.274  0.003
      -0.001  0.125 -0.001  0.003  0.267

     Number of occupied Hubbard levels =    6.4105

     HUBBARD ENERGY =    0.2129  (Ry)

     total cpu time spent up to now is     1062.8 secs

     total energy              =   -1260.38313997 Ry
     estimated scf accuracy    <       0.41933872 Ry

     total magnetization       =    13.18 Bohr mag/cell
     absolute magnetization    =    13.24 Bohr mag/cell
[tb_dev] Currently allocated     0.00E+00 Mbytes, locked:    0 /   0
[tb_pin] Currently allocated     0.00E+00 Mbytes, locked:    0 /   0

     iteration #  7     ecut=    65.00 Ry     beta= 0.70
     CG style diagonalization

---- Real-time Memory Report at c_bands before calling an iterative solver
          7677 MiB given to the printing process from OS
             0 MiB allocation reported by mallinfo(arena+hblkhd)
        464263 MiB available memory on the node where the printing process lives
     GPU memory used/free/total (MiB): 3380 / 61564 / 64944
------------------
     c_bands:  1 eigenvalues not converged
     ethr =  3.04E-04,  avg # of iterations =  3.1

     =================== HUBBARD OCCUPATIONS ===================
     ------------------------ ATOM    4 ------------------------
     Tr[ns(  4)] (up, down, total) =   4.96511  1.52302  6.48812
     Atomic magnetic moment for atom   4 =   3.44209
     SPIN  1
     eigenvalues:
       0.982  0.989  0.998  0.998  0.998
     eigenvectors (columns):
      -0.024  0.002  0.887 -0.094 -0.451
       0.637  0.477 -0.249 -0.307 -0.459
      -0.467  0.645  0.091 -0.509  0.313
      -0.368  0.480 -0.137  0.680 -0.391
       0.491  0.355  0.351  0.418  0.579
     occupation matrix ns (before diag.):
       0.998  0.000 -0.000 -0.000  0.000
       0.000  0.989  0.002  0.002 -0.007
      -0.000  0.002  0.991 -0.006  0.002
      -0.000  0.002 -0.006  0.994  0.001
       0.000 -0.007  0.002  0.001  0.993
     SPIN  2
     eigenvalues:
       0.189  0.196  0.259  0.438  0.441
     eigenvectors (columns):
       0.037  0.123  0.991  0.021  0.019
       0.602  0.111 -0.014 -0.717 -0.333
       0.109 -0.588  0.062 -0.336  0.725
      -0.145  0.780 -0.096 -0.253  0.545
      -0.777 -0.137  0.063 -0.555 -0.257
     occupation matrix ns (before diag.):
       0.258 -0.006  0.005 -0.005  0.000
      -0.006  0.345 -0.001  0.000  0.120
       0.005 -0.001  0.352  0.117  0.000
      -0.005  0.000  0.117  0.285 -0.002
       0.000  0.120  0.000 -0.002  0.283

     Number of occupied Hubbard levels =    6.4881

     HUBBARD ENERGY =    0.2150  (Ry)

     total cpu time spent up to now is     1195.3 secs

     total energy              =   -1260.50363867 Ry
     estimated scf accuracy    <       0.20104990 Ry

     total magnetization       =    13.51 Bohr mag/cell
     absolute magnetization    =    13.57 Bohr mag/cell
[tb_dev] Currently allocated     0.00E+00 Mbytes, locked:    0 /   0
[tb_pin] Currently allocated     0.00E+00 Mbytes, locked:    0 /   0

     iteration #  8     ecut=    65.00 Ry     beta= 0.70
     CG style diagonalization

---- Real-time Memory Report at c_bands before calling an iterative solver
          7682 MiB given to the printing process from OS
             0 MiB allocation reported by mallinfo(arena+hblkhd)
        463967 MiB available memory on the node where the printing process lives
     GPU memory used/free/total (MiB): 3380 / 61564 / 64944
------------------
     ethr =  1.83E-04,  avg # of iterations =  3.1

     =================== HUBBARD OCCUPATIONS ===================
     ------------------------ ATOM    4 ------------------------
     Tr[ns(  4)] (up, down, total) =   4.95333  1.73419  6.68752
     Atomic magnetic moment for atom   4 =   3.21915
     SPIN  1
     eigenvalues:
       0.977  0.981  0.998  0.998  0.998
     eigenvectors (columns):
      -0.005 -0.012 -0.982  0.175  0.075
       0.547  0.557 -0.120 -0.614 -0.006
       0.551 -0.549  0.048 -0.022  0.627
       0.448 -0.441 -0.053  0.016 -0.775
       0.444  0.441  0.131  0.769  0.013
     occupation matrix ns (before diag.):
       0.998  0.000 -0.000 -0.000  0.000
       0.000  0.987 -0.001 -0.001 -0.009
      -0.000 -0.001  0.987 -0.009 -0.001
      -0.000 -0.001 -0.009  0.991 -0.001
       0.000 -0.009 -0.001 -0.001  0.991
     SPIN  2
     eigenvalues:
       0.224  0.236  0.365  0.454  0.456
     eigenvectors (columns):
      -0.042  0.116  0.990 -0.066 -0.030
      -0.611  0.028  0.028  0.773  0.165
      -0.038 -0.599  0.055  0.157 -0.782
       0.040  0.791 -0.100  0.132 -0.588
       0.789 -0.041  0.081  0.596  0.119
     occupation matrix ns (before diag.):
       0.363 -0.009  0.010 -0.011  0.001
      -0.009  0.368 -0.002  0.001  0.111
       0.010 -0.002  0.376  0.105  0.001
      -0.011  0.001  0.105  0.317  0.000
       0.001  0.111  0.001  0.000  0.310

     Number of occupied Hubbard levels =    6.6875

     HUBBARD ENERGY =    0.2192  (Ry)

     total cpu time spent up to now is     1324.9 secs

     total energy              =   -1260.53360919 Ry
     estimated scf accuracy    <       0.03300961 Ry

     total magnetization       =    13.32 Bohr mag/cell
     absolute magnetization    =    13.39 Bohr mag/cell
[tb_dev] Currently allocated     0.00E+00 Mbytes, locked:    0 /   0
[tb_pin] Currently allocated     0.00E+00 Mbytes, locked:    0 /   0

     iteration #  9     ecut=    65.00 Ry     beta= 0.70
     CG style diagonalization

---- Real-time Memory Report at c_bands before calling an iterative solver
          7688 MiB given to the printing process from OS
             0 MiB allocation reported by mallinfo(arena+hblkhd)
        467759 MiB available memory on the node where the printing process lives
     GPU memory used/free/total (MiB): 3380 / 61564 / 64944
------------------
     c_bands:  1 eigenvalues not converged
     c_bands:  1 eigenvalues not converged
     c_bands:  1 eigenvalues not converged
     c_bands:  1 eigenvalues not converged
     c_bands:  1 eigenvalues not converged
     c_bands:  1 eigenvalues not converged
     c_bands:  1 eigenvalues not converged
     c_bands:  1 eigenvalues not converged
     c_bands:  1 eigenvalues not converged
     c_bands:  1 eigenvalues not converged
     c_bands:  1 eigenvalues not converged
     c_bands:  1 eigenvalues not converged
     c_bands:  1 eigenvalues not converged
     c_bands:  1 eigenvalues not converged
     c_bands:  1 eigenvalues not converged
     c_bands:  2 eigenvalues not converged
     c_bands:  1 eigenvalues not converged
     c_bands:  1 eigenvalues not converged
     c_bands:  1 eigenvalues not converged
     c_bands:  1 eigenvalues not converged
     c_bands:  3 eigenvalues not converged
     c_bands:  1 eigenvalues not converged
     c_bands:  1 eigenvalues not converged
     c_bands:  1 eigenvalues not converged
     c_bands:  1 eigenvalues not converged
     c_bands:  1 eigenvalues not converged
     c_bands:  1 eigenvalues not converged
     c_bands:  1 eigenvalues not converged
     c_bands:  2 eigenvalues not converged
     c_bands:  1 eigenvalues not converged
     c_bands:  1 eigenvalues not converged
     c_bands:  1 eigenvalues not converged
     c_bands:  1 eigenvalues not converged
     c_bands:  1 eigenvalues not converged
     c_bands:  1 eigenvalues not converged
     c_bands:  1 eigenvalues not converged
     c_bands:  1 eigenvalues not converged
     c_bands:  1 eigenvalues not converged
     c_bands:  1 eigenvalues not converged
     c_bands:  1 eigenvalues not converged
     c_bands:  1 eigenvalues not converged
     c_bands:  1 eigenvalues not converged
     c_bands:  2 eigenvalues not converged
     ethr =  3.00E-05,  avg # of iterations =  3.9

     =================== HUBBARD OCCUPATIONS ===================
     ------------------------ ATOM    4 ------------------------
     Tr[ns(  4)] (up, down, total) =   4.92490  2.28392  7.20882
     Atomic magnetic moment for atom   4 =   2.64098
     SPIN  1
     eigenvalues:
       0.961  0.969  0.998  0.998  0.998
     eigenvectors (columns):
      -0.000  0.007  0.996 -0.078  0.047
      -0.578  0.515 -0.061 -0.518  0.358
       0.516  0.576 -0.001  0.358  0.523
       0.422  0.472 -0.008 -0.441 -0.636
      -0.470  0.424  0.067  0.635 -0.438
     occupation matrix ns (before diag.):
       0.998 -0.000 -0.000 -0.000 -0.000
      -0.000  0.978  0.002  0.002 -0.016
      -0.000  0.002  0.979 -0.016  0.002
      -0.000  0.002 -0.016  0.985  0.001
      -0.000 -0.016  0.002  0.001  0.985
     SPIN  2
     eigenvalues:
       0.256  0.280  0.492  0.497  0.758
     eigenvectors (columns):
      -0.021 -0.118  0.015 -0.030 -0.992
      -0.620 -0.088  0.666 -0.402  0.046
      -0.087  0.604  0.411  0.672 -0.084
       0.111 -0.776  0.315  0.529  0.079
       0.771  0.105  0.537 -0.325 -0.011
     occupation matrix ns (before diag.):
       0.751 -0.017  0.037 -0.040  0.009
      -0.017  0.401 -0.004  0.002  0.115
       0.037 -0.004  0.417  0.101  0.002
[...]
     SPIN  1
     eigenvalues:
       0.889  0.920  0.997  0.998  0.998
     eigenvectors (columns):
      -0.001 -0.036  0.119 -0.093 -0.988
       0.320 -0.691 -0.560  0.319 -0.073
       0.678  0.330  0.313  0.577 -0.030
       0.596  0.275 -0.373 -0.656  0.006
       0.287 -0.581  0.660 -0.356  0.134
     occupation matrix ns (before diag.):
       0.998 -0.002  0.001  0.001 -0.002
      -0.002  0.949 -0.006 -0.006 -0.041
       0.001 -0.006  0.939 -0.051 -0.006
       0.001 -0.006 -0.051  0.953 -0.006
      -0.002 -0.041 -0.006 -0.006  0.962
     SPIN  2
     eigenvalues:
       0.095  0.239  0.376  0.444  0.992
     eigenvectors (columns):
       0.996  0.004  0.066 -0.002  0.065
       0.081 -0.013 -0.639  0.501 -0.578
      -0.044 -0.032  0.373  0.865  0.333
      -0.002  0.862  0.341  0.028 -0.373
      -0.006  0.505 -0.576  0.020  0.642
     occupation matrix ns (before diag.):
       0.100 -0.046  0.026 -0.015  0.027
      -0.046  0.597 -0.088  0.135 -0.227
       0.026 -0.088  0.494 -0.071  0.135
      -0.015  0.135 -0.071  0.360 -0.207
       0.027 -0.227  0.135 -0.207  0.595

     Number of occupied Hubbard levels =    6.9478

     HUBBARD ENERGY =    0.1791  (Ry)

     total cpu time spent up to now is    44004.4 secs

     total energy              =   -1260.63572201 Ry
     estimated scf accuracy    <       0.00000036 Ry

     total magnetization       =    11.60 Bohr mag/cell
     absolute magnetization    =    12.00 Bohr mag/cell
[tb_dev] Currently allocated     0.00E+00 Mbytes, locked:    0 /   0
[tb_pin] Currently allocated     0.00E+00 Mbytes, locked:    0 /   0

     iteration #295     ecut=    65.00 Ry     beta= 0.70
     CG style diagonalization

---- Real-time Memory Report at c_bands before calling an iterative solver
          7699 MiB given to the printing process from OS
             0 MiB allocation reported by mallinfo(arena+hblkhd)
        458119 MiB available memory on the node where the printing process lives
     GPU memory used/free/total (MiB): 3380 / 61564 / 64944
------------------
     ethr =  3.31E-10,  avg # of iterations =  3.7

     =================== HUBBARD OCCUPATIONS ===================
     ------------------------ ATOM    4 ------------------------
     Tr[ns(  4)] (up, down, total) =   4.80156  2.14644  6.94799
     Atomic magnetic moment for atom   4 =   2.65512
     SPIN  1
     eigenvalues:
       0.889  0.920  0.997  0.998  0.998
     eigenvectors (columns):
      -0.001 -0.036  0.120 -0.100 -0.987
       0.325 -0.688 -0.558  0.322 -0.075
       0.675  0.336  0.316  0.575 -0.033
       0.594  0.280 -0.376 -0.654  0.010
       0.292 -0.578  0.658 -0.359  0.137
     occupation matrix ns (before diag.):
       0.998 -0.002  0.001  0.001 -0.002
      -0.002  0.949 -0.006 -0.006 -0.041
       0.001 -0.006  0.939 -0.051 -0.006
       0.001 -0.006 -0.051  0.953 -0.006
      -0.002 -0.041 -0.006 -0.006  0.962
     SPIN  2
     eigenvalues:
       0.095  0.239  0.376  0.444  0.992
     eigenvectors (columns):
       0.996  0.006  0.066 -0.005  0.066
       0.083 -0.013 -0.635  0.509 -0.575
      -0.043 -0.032  0.379  0.860  0.337
      -0.003  0.859  0.346  0.027 -0.377
      -0.008  0.511 -0.574  0.021  0.640
     occupation matrix ns (before diag.):
       0.100 -0.047  0.026 -0.015  0.028
      -0.047  0.596 -0.088  0.136 -0.225
       0.026 -0.088  0.496 -0.073  0.136
      -0.015  0.136 -0.073  0.363 -0.209
       0.028 -0.225  0.136 -0.209  0.592

     Number of occupied Hubbard levels =    6.9480

     HUBBARD ENERGY =    0.1791  (Ry)

     total cpu time spent up to now is    44172.8 secs

     total energy              =   -1260.63573159 Ry
     estimated scf accuracy    <       0.00000047 Ry

     total magnetization       =    11.60 Bohr mag/cell
     absolute magnetization    =    12.00 Bohr mag/cell
[tb_dev] Currently allocated     0.00E+00 Mbytes, locked:    0 /   0
[tb_pin] Currently allocated     0.00E+00 Mbytes, locked:    0 /   0

     iteration #296     ecut=    65.00 Ry     beta= 0.70
     CG style diagonalization

---- Real-time Memory Report at c_bands before calling an iterative solver
          7699 MiB given to the printing process from OS
             0 MiB allocation reported by mallinfo(arena+hblkhd)
        458111 MiB available memory on the node where the printing process lives
     GPU memory used/free/total (MiB): 3380 / 61564 / 64944
------------------
     ethr =  3.31E-10,  avg # of iterations =  3.2

     =================== HUBBARD OCCUPATIONS ===================
     ------------------------ ATOM    4 ------------------------
     Tr[ns(  4)] (up, down, total) =   4.80159  2.14622  6.94781
     Atomic magnetic moment for atom   4 =   2.65537
     SPIN  1
     eigenvalues:
       0.889  0.920  0.997  0.998  0.998
     eigenvectors (columns):
      -0.001 -0.036  0.119 -0.101 -0.987
       0.326 -0.688 -0.558  0.322 -0.075
       0.675  0.337  0.316  0.575 -0.033
       0.594  0.280 -0.377 -0.653  0.011
       0.293 -0.578  0.658 -0.359  0.137
     occupation matrix ns (before diag.):
       0.998 -0.002  0.001  0.001 -0.002
      -0.002  0.949 -0.006 -0.006 -0.041
       0.001 -0.006  0.939 -0.051 -0.007
       0.001 -0.006 -0.051  0.953 -0.006
      -0.002 -0.041 -0.007 -0.006  0.962
     SPIN  2
     eigenvalues:
       0.095  0.239  0.376  0.444  0.992
     eigenvectors (columns):
       0.996  0.006  0.066 -0.006  0.065
       0.082 -0.012 -0.634  0.510 -0.575
      -0.042 -0.032  0.381  0.859  0.337
      -0.004  0.858  0.347  0.027 -0.378
      -0.007  0.512 -0.573  0.022  0.639
     occupation matrix ns (before diag.):
       0.100 -0.046  0.025 -0.015  0.027
      -0.046  0.596 -0.089  0.136 -0.224
       0.025 -0.089  0.496 -0.073  0.136
      -0.015  0.136 -0.073  0.363 -0.209
       0.027 -0.224  0.136 -0.209  0.592

     Number of occupied Hubbard levels =    6.9478

     HUBBARD ENERGY =    0.1792  (Ry)

     total cpu time spent up to now is    44309.7 secs

     total energy              =   -1260.63569186 Ry
     estimated scf accuracy    <       0.00000031 Ry

     total magnetization       =    11.60 Bohr mag/cell
     absolute magnetization    =    12.00 Bohr mag/cell
[tb_dev] Currently allocated     0.00E+00 Mbytes, locked:    0 /   0
[tb_pin] Currently allocated     0.00E+00 Mbytes, locked:    0 /   0

     iteration #297     ecut=    65.00 Ry     beta= 0.70
     CG style diagonalization

---- Real-time Memory Report at c_bands before calling an iterative solver
          7699 MiB given to the printing process from OS
             0 MiB allocation reported by mallinfo(arena+hblkhd)
        458109 MiB available memory on the node where the printing process lives
     GPU memory used/free/total (MiB): 3380 / 61564 / 64944
------------------
     ethr =  2.80E-10,  avg # of iterations =  4.1

     =================== HUBBARD OCCUPATIONS ===================
     ------------------------ ATOM    4 ------------------------
     Tr[ns(  4)] (up, down, total) =   4.80141  2.14636  6.94777
     Atomic magnetic moment for atom   4 =   2.65505
     SPIN  1
     eigenvalues:
       0.888  0.920  0.997  0.998  0.998
     eigenvectors (columns):
       0.000  0.035  0.111 -0.104 -0.988
      -0.330  0.686 -0.558  0.323 -0.072
      -0.673 -0.340  0.317  0.574 -0.038
      -0.592 -0.284 -0.378 -0.653  0.016
      -0.296  0.577  0.658 -0.360  0.132
     occupation matrix ns (before diag.):
       0.998 -0.002  0.001  0.001 -0.002
      -0.002  0.949 -0.006 -0.007 -0.041
       0.001 -0.006  0.939 -0.051 -0.007
       0.001 -0.007 -0.051  0.953 -0.006
      -0.002 -0.041 -0.007 -0.006  0.962
     SPIN  2
     eigenvalues:
       0.095  0.240  0.377  0.443  0.992
     eigenvectors (columns):
       0.996  0.009 -0.064  0.009  0.053
       0.076 -0.010  0.630 -0.517 -0.575
      -0.035 -0.031 -0.389 -0.856  0.338
      -0.010  0.857 -0.349 -0.022 -0.379
      -0.002  0.515  0.571 -0.026  0.639
     occupation matrix ns (before diag.):
       0.099 -0.041  0.021 -0.011  0.021
      -0.041  0.596 -0.090  0.136 -0.224
       0.021 -0.090  0.495 -0.074  0.137
      -0.011  0.136 -0.074  0.364 -0.209
       0.021 -0.224  0.137 -0.209  0.592

     Number of occupied Hubbard levels =    6.9478

     HUBBARD ENERGY =    0.1792  (Ry)

     total cpu time spent up to now is    44498.5 secs

     total energy              =   -1260.63573120 Ry
     estimated scf accuracy    <       0.00000036 Ry

     total magnetization       =    11.60 Bohr mag/cell
     absolute magnetization    =    12.00 Bohr mag/cell
[tb_dev] Currently allocated     0.00E+00 Mbytes, locked:    0 /   0
[tb_pin] Currently allocated     0.00E+00 Mbytes, locked:    0 /   0

     iteration #298     ecut=    65.00 Ry     beta= 0.70
     CG style diagonalization

---- Real-time Memory Report at c_bands before calling an iterative solver
          7699 MiB given to the printing process from OS
             0 MiB allocation reported by mallinfo(arena+hblkhd)
        458073 MiB available memory on the node where the printing process lives
     GPU memory used/free/total (MiB): 3380 / 61564 / 64944
------------------
     ethr =  2.80E-10,  avg # of iterations =  3.8

     =================== HUBBARD OCCUPATIONS ===================
     ------------------------ ATOM    4 ------------------------
     Tr[ns(  4)] (up, down, total) =   4.80130  2.14646  6.94776
     Atomic magnetic moment for atom   4 =   2.65485
     SPIN  1
     eigenvalues:
       0.888  0.921  0.997  0.998  0.998
     eigenvectors (columns):
       0.000  0.035  0.108 -0.108 -0.988
      -0.331  0.685 -0.558  0.324 -0.072
      -0.672 -0.341  0.318  0.573 -0.040
      -0.591 -0.285 -0.379 -0.652  0.020
      -0.297  0.576  0.657 -0.361  0.132
     occupation matrix ns (before diag.):
       0.998 -0.002  0.001  0.001 -0.002
      -0.002  0.949 -0.006 -0.007 -0.041
       0.001 -0.006  0.939 -0.051 -0.007
       0.001 -0.007 -0.051  0.953 -0.006
      -0.002 -0.041 -0.007 -0.006  0.962
     SPIN  2
     eigenvalues:
       0.095  0.240  0.377  0.443  0.992
     eigenvectors (columns):
       0.997  0.010 -0.064  0.011  0.049
       0.074 -0.008  0.627 -0.521 -0.575
      -0.032 -0.030 -0.394 -0.853  0.340
      -0.012  0.855 -0.352 -0.019 -0.380
      -0.000  0.517  0.569 -0.027  0.638
     occupation matrix ns (before diag.):
       0.098 -0.039  0.019 -0.009  0.019
      -0.039  0.596 -0.090  0.136 -0.224
       0.019 -0.090  0.495 -0.075  0.137
      -0.009  0.136 -0.075  0.366 -0.210
       0.019 -0.224  0.137 -0.210  0.591

     Number of occupied Hubbard levels =    6.9478

     HUBBARD ENERGY =    0.1792  (Ry)

     total cpu time spent up to now is    44668.9 secs

     total energy              =   -1260.63573414 Ry
     estimated scf accuracy    <       0.00000025 Ry

     total magnetization       =    11.60 Bohr mag/cell
     absolute magnetization    =    12.00 Bohr mag/cell
[tb_dev] Currently allocated     0.00E+00 Mbytes, locked:    0 /   0
[tb_pin] Currently allocated     0.00E+00 Mbytes, locked:    0 /   0

     iteration #299     ecut=    65.00 Ry     beta= 0.70
     CG style diagonalization

---- Real-time Memory Report at c_bands before calling an iterative solver
          7699 MiB given to the printing process from OS
             0 MiB allocation reported by mallinfo(arena+hblkhd)
        458080 MiB available memory on the node where the printing process lives
     GPU memory used/free/total (MiB): 3380 / 61564 / 64944
------------------
     ethr =  2.27E-10,  avg # of iterations =  3.7

     =================== HUBBARD OCCUPATIONS ===================
     ------------------------ ATOM    4 ------------------------
     Tr[ns(  4)] (up, down, total) =   4.80126  2.14671  6.94797
     Atomic magnetic moment for atom   4 =   2.65454
     SPIN  1
     eigenvalues:
       0.888  0.921  0.997  0.998  0.998
     eigenvectors (columns):
      -0.000  0.035  0.106 -0.114 -0.987
      -0.336  0.683 -0.557  0.326 -0.073
      -0.670 -0.346  0.321  0.571 -0.044
      -0.589 -0.289 -0.382 -0.650  0.024
      -0.301  0.574  0.656 -0.363  0.133
     occupation matrix ns (before diag.):
       0.998 -0.002  0.001  0.001 -0.002
      -0.002  0.949 -0.006 -0.007 -0.041
       0.001 -0.006  0.939 -0.051 -0.007
       0.001 -0.007 -0.051  0.953 -0.007
      -0.002 -0.041 -0.007 -0.007  0.962
     SPIN  2
     eigenvalues:
       0.095  0.240  0.377  0.443  0.992
     eigenvectors (columns):
       0.997  0.012 -0.063  0.013  0.047
       0.074 -0.008  0.623 -0.527 -0.573
      -0.030 -0.030 -0.400 -0.849  0.343
      -0.014  0.853 -0.355 -0.017 -0.383
       0.000  0.522  0.567 -0.028  0.637
     occupation matrix ns (before diag.):
       0.098 -0.038  0.018 -0.008  0.018
      -0.038  0.596 -0.091  0.137 -0.223
       0.018 -0.091  0.496 -0.076  0.138
      -0.008  0.137 -0.076  0.368 -0.211
       0.018 -0.223  0.138 -0.211  0.589

     Number of occupied Hubbard levels =    6.9480

     HUBBARD ENERGY =    0.1792  (Ry)

     total cpu time spent up to now is    44838.2 secs

     total energy              =   -1260.63573391 Ry
     estimated scf accuracy    <       0.00000022 Ry

     total magnetization       =    11.60 Bohr mag/cell
     absolute magnetization    =    12.00 Bohr mag/cell
[tb_dev] Currently allocated     0.00E+00 Mbytes, locked:    0 /   0
[tb_pin] Currently allocated     0.00E+00 Mbytes, locked:    0 /   0

     iteration #300     ecut=    65.00 Ry     beta= 0.70
     CG style diagonalization

---- Real-time Memory Report at c_bands before calling an iterative solver
          7699 MiB given to the printing process from OS
             0 MiB allocation reported by mallinfo(arena+hblkhd)
        458046 MiB available memory on the node where the printing process lives
     GPU memory used/free/total (MiB): 3380 / 61564 / 64944
------------------
     ethr =  1.98E-10,  avg # of iterations =  3.8

     =================== HUBBARD OCCUPATIONS ===================
     ------------------------ ATOM    4 ------------------------
     Tr[ns(  4)] (up, down, total) =   4.80118  2.14656  6.94774
     Atomic magnetic moment for atom   4 =   2.65463
     SPIN  1
     eigenvalues:
       0.887  0.921  0.997  0.998  0.998
     eigenvectors (columns):
      -0.001  0.035  0.102 -0.116 -0.987
      -0.337  0.682 -0.556  0.326 -0.072
      -0.670 -0.347  0.322  0.571 -0.046
      -0.589 -0.290 -0.383 -0.649  0.027
      -0.302  0.574  0.656 -0.364  0.131
     occupation matrix ns (before diag.):
       0.998 -0.002  0.001  0.001 -0.002
      -0.002  0.949 -0.007 -0.007 -0.041
       0.001 -0.007  0.939 -0.051 -0.007
       0.001 -0.007 -0.051  0.953 -0.007
      -0.002 -0.041 -0.007 -0.007  0.962
     SPIN  2
     eigenvalues:
       0.095  0.240  0.378  0.442  0.992
     eigenvectors (columns):
       0.997  0.013 -0.063  0.014  0.042
       0.071 -0.007  0.621 -0.530 -0.573
      -0.027 -0.030 -0.403 -0.847  0.344
      -0.017  0.852 -0.356 -0.015 -0.384
       0.002  0.523  0.566 -0.030  0.636
     occupation matrix ns (before diag.):
       0.098 -0.035  0.016 -0.007  0.015
      -0.035  0.596 -0.091  0.137 -0.222
       0.016 -0.091  0.496 -0.077  0.138
      -0.007  0.137 -0.077  0.369 -0.211
       0.015 -0.222  0.138 -0.211  0.589

     Number of occupied Hubbard levels =    6.9477

     HUBBARD ENERGY =    0.1792  (Ry)

     total cpu time spent up to now is    45013.4 secs

     total energy              =   -1260.63574017 Ry
     estimated scf accuracy    <       0.00000021 Ry

     total magnetization       =    11.60 Bohr mag/cell
     absolute magnetization    =    12.00 Bohr mag/cell

     End of self-consistent calculation

     convergence NOT achieved after 300 iterations: stopping

     Writing config to output data dir ./out/aiida.save/ :
     XML data file, charge density
 
     init_run     :     12.17s CPU     14.47s WALL (       1 calls)
     electrons    :  44260.63s CPU  44998.35s WALL (       1 calls)

     Called by init_run:
     wfcinit      :     10.11s CPU     12.12s WALL (       1 calls)
     wfcinit:atom :      0.68s CPU      0.69s WALL (     568 calls)
     wfcinit:wfcr :      5.09s CPU      5.14s WALL (     568 calls)
     potinit      :      0.29s CPU      0.37s WALL (       1 calls)
     hinit0       :      1.08s CPU      1.15s WALL (       1 calls)

     Called by electrons:
     c_bands      :  42792.27s CPU  43522.52s WALL (     300 calls)
     sum_band     :   1391.76s CPU   1398.43s WALL (     300 calls)
     v_of_rho     :      7.37s CPU      7.49s WALL (     301 calls)
     v_h          :      2.47s CPU      2.50s WALL (     301 calls)
     v_xc         :      4.90s CPU      4.99s WALL (     301 calls)
     newd         :      9.16s CPU      9.27s WALL (     301 calls)
     PAW_pot      :     23.50s CPU     23.62s WALL (     301 calls)
     mix_rho      :     13.75s CPU     13.90s WALL (     300 calls)

     Called by c_bands:
     init_us_2    :    140.65s CPU    141.37s WALL (  341936 calls)
     ccgdiagg     :  40658.47s CPU  41373.27s WALL (  170400 calls)
     wfcrot       :   1276.49s CPU   1287.23s WALL (  170400 calls)
                                     1286.58s GPU  (  170400 calls)

     Called by sum_band:
     sum_band:wei :      9.50s CPU      9.52s WALL (     300 calls)
     sum_band:loo :    946.39s CPU    950.74s WALL (     300 calls)
     sum_band:buf :    301.15s CPU    302.90s WALL (  170400 calls)
     sum_band:ini :     69.21s CPU     69.60s WALL (  170400 calls)
     sum_band:cal :      6.80s CPU      6.82s WALL (  170400 calls)
     sum_band:bec :     93.29s CPU     93.90s WALL (  170400 calls)
     addusdens    :     19.46s CPU     19.53s WALL (     300 calls)
                                       19.52s GPU  (     300 calls)
     addusd:skk   :      0.11s CPU      0.12s WALL (     900 calls)
                                        0.11s GPU  (     900 calls)

     Called by *cgdiagg:
     h_psi        :  16883.54s CPU  17195.46s WALL (27235854 calls)
     s_psi        :  15865.36s CPU  16145.04s WALL (54301876 calls)

     Called by h_psi:
     h_psi:calbec :    370.84s CPU    376.90s WALL (27235854 calls)
     vloc_psi     :   7113.36s CPU   7460.18s WALL (27235854 calls)
                                     7286.84s GPU  (27235854 calls)
     add_vuspsi   :   6611.87s CPU   6758.18s WALL (27235854 calls)
     vhpsi        :   2003.97s CPU   2049.29s WALL (27235854 calls)
     hs_1psi      :  23970.30s CPU  25151.43s WALL (27065454 calls)
                                    24984.59s GPU  (27065454 calls)
     s_1psi       :   8540.59s CPU   9294.63s WALL (27065454 calls)
                                     9126.12s GPU  (27065454 calls)

     General routines
     calbec       :   1007.60s CPU   1030.43s WALL (81878530 calls)
     fft          :     11.26s CPU     11.82s WALL (    7523 calls)
                                        0.55s GPU  (    6921 calls)
     ffts         :      1.73s CPU      1.75s WALL (    1202 calls)
                                        0.02s GPU  (     600 calls)
     fftw         :    439.52s CPU   2769.11s WALL (56688044 calls)
                                     2424.55s GPU  (56688044 calls)
     interpolate  :     14.57s CPU     14.62s WALL (     602 calls)
     davcio       :      0.08s CPU      3.00s WALL (     586 calls)
 
     Parallel routines

     Hubbard U routines
     new_ns       :    402.86s CPU    405.04s WALL (     300 calls)
     vhpsi        :   2003.97s CPU   2049.29s WALL (27235854 calls)

     PAW routines
     PAW_pot      :     23.50s CPU     23.62s WALL (     301 calls)
     PAW_symme    :      0.03s CPU      0.03s WALL (     601 calls)
 
     PWSCF        :     12h17m CPU     12h30m WALL

 
   This run was terminated on:   4:12:21  16Oct2025            

=------------------------------------------------------------------------------=
   JOB DONE.
=------------------------------------------------------------------------------=
