
     Program PWSCF v.7.4.1 starts on 15Oct2025 at 10:13: 9 

     This program is part of the open-source Quantum ESPRESSO suite
     for quantum simulation of materials; please cite
         "P. Giannozzi et al., J. Phys.:Condens. Matter 21 395502 (2009);
         "P. Giannozzi et al., J. Phys.:Condens. Matter 29 465901 (2017);
         "P. Giannozzi et al., J. Chem. Phys. 152 154105 (2020);
          URL http://www.quantum-espresso.org", 
     in publications or presentations arising from this work. More details at
     http://www.quantum-espresso.org/quote

     Parallel version (MPI & OpenMP), running on       1 processor cores
     Number of MPI processes:                 1
     Threads/MPI process:                     1

     MPI processes distributed on     1 nodes
     428549 MiB available memory on the printing compute node when the environment starts
 
     Reading input from pwscf.in
Warning: card &FCP ignored
Warning: card &RISM ignored

     Current dimensions of program PWSCF are:
     Max number of different atomic species (ntypx) = 10
     Max number of k-points (npk) =  40000
     Max angular momentum in pseudopotentials (lmaxx) =  4
     file K.pbesol-spn-kjpaw_psl.1.0.0.UPF: wavefunction(s)  3S renormalized
 check tnoseh fnoseh  F    1.000000000000000     
 
     Subspace diagonalization in iterative solution of the eigenvalue problem:
     a serial algorithm will be used

 
     G-vector sticks info
     --------------------
     sticks:   dense  smooth     PW     G-vecs:    dense   smooth      PW
     Sum        8215    4111   1181               460783   162881   25283
 
     Using Slab Decomposition
 


     bravais-lattice index     =            0
     lattice parameter (alat)  =      11.0644  a.u.
     unit-cell volume          =    2594.7091 (a.u.)^3
     number of atoms/cell      =           17
     number of atomic types    =            3
     number of electrons       =       138.00
     number of Kohn-Sham states=           83
     kinetic-energy cutoff     =      60.0000  Ry
     charge density cutoff     =     480.0000  Ry
     scf convergence threshold =      3.4E-09
     mixing beta               =       0.7000
     number of iterations used =            8  plain     mixing
     energy convergence thresh.=      1.7E-04
     force convergence thresh. =      1.0E-04
     press convergence thresh. =      5.0E-01
     Exchange-correlation= SLA  PW   PSX  PSC
                           (   1   4  10   8   0   0   0)
     nstep                     =          180


     GPU acceleration is ACTIVE.  1 visible GPUs per MPI rank
     GPU-aware MPI enabled


     GPU used by master process:

        Device Number: 0
        Device name: NVIDIA A100-SXM-64GB
        Compute capability : 80
        Ratio of single to double precision performance  : 2
        Memory Clock Rate (KHz): 1593000
        Memory Bus Width (bits): 4096
        Peak Memory Bandwidth (GB/s): ******
     Hubbard projectors: ortho-atomic
     Hubbard parameters of DFT+U (Dudarev formulation) in eV:
     U(Ti-3d) =  4.7000

     Internal variables: lda_plus_u = T, lda_plus_u_kind = 0

     celldm(1)=  11.064367  celldm(2)=   0.000000  celldm(3)=   0.000000
     celldm(4)=   0.000000  celldm(5)=   0.000000  celldm(6)=   0.000000

     crystal axes: (cart. coord. in units of alat)
               a(1) = (   1.000000   0.000000   0.000000 )  
               a(2) = (   0.004164   1.758289   0.000000 )  
               a(3) = (   0.502416   0.801535   1.089479 )  

     reciprocal axes: (cart. coord. in units 2 pi/alat)
               b(1) = (  1.000000 -0.002368 -0.459411 )  
               b(2) = (  0.000000  0.568735 -0.418421 )  
               b(3) = (  0.000000  0.000000  0.917870 )  


     PseudoPot. # 1 for K  read from file:
     /leonardo_scratch/large/userexternal/nalghamd/mc_mace/GNoME-screening/2_space_group_DFT/pseudo_SSSP1.3_aiida/K.pbesol-spn-kjpaw_psl.1.0.0.UPF
     MD5 check sum: b302bede38c4f5fe00638ceae66f121b
     Pseudo is Projector augmented-wave + core cor, Zval =  9.0
     Generated using "atomic" code by A. Dal Corso  v.6.0 svn rev. 13079
     Shape of augmentation charge: PSQ
     Using radial grid of 1165 points,  6 beta functions with: 
                l(1) =   0
                l(2) =   0
                l(3) =   1
                l(4) =   1
                l(5) =   2
                l(6) =   2
     Q(r) pseudized with 0 coefficients 


     PseudoPot. # 2 for S  read from file:
     /leonardo_scratch/large/userexternal/nalghamd/mc_mace/GNoME-screening/2_space_group_DFT/pseudo_SSSP1.3_aiida/s_pbesol_v1.4.uspp.F.UPF
     MD5 check sum: 0ccfa86ec6eb59065d10aaae963ef2a7
     Pseudo is Ultrasoft + core correction, Zval =  6.0
     Generated by new atomic code, or converted to UPF format
     Using radial grid of  907 points,  6 beta functions with: 
                l(1) =   0
                l(2) =   0
                l(3) =   1
                l(4) =   1
                l(5) =   2
                l(6) =   2
     Q(r) pseudized with  8 coefficients,  rinner =    1.300   1.300   1.300
                                                       1.300   1.300

     PseudoPot. # 3 for Ti read from file:
     /leonardo_scratch/large/userexternal/nalghamd/mc_mace/GNoME-screening/2_space_group_DFT/pseudo_SSSP1.3_aiida/ti_pbesol_v1.4.uspp.F.UPF
     MD5 check sum: 193cf2c0c3c6a4da613d69453fa7e3e9
     Pseudo is Ultrasoft + core correction, Zval = 12.0
     Generated by new atomic code, or converted to UPF format
     Using radial grid of  851 points,  6 beta functions with: 
                l(1) =   0
                l(2) =   0
                l(3) =   1
                l(4) =   1
                l(5) =   2
                l(6) =   2
     Q(r) pseudized with  6 coefficients,  rinner =    1.000   1.000   1.000
                                                       1.000   1.000

     atomic species   valence    mass     pseudopotential
     K                 9.00    39.09830     K ( 1.00)
     S                 6.00    32.06500     S ( 1.00)
     Ti               12.00    47.86700     Ti( 1.00)

     Starting magnetic structure 
     atomic species   magnetization
     K               0.100
     S               0.100
     Ti              0.417

     No symmetry found


                                    s                        frac. trans.

      isym =  1     identity                                     

 cryst.   s( 1) = (     1          0          0      )
                  (     0          1          0      )
                  (     0          0          1      )

 cart.    s( 1) = (  1.0000000  0.0000000  0.0000000 )
                  (  0.0000000  1.0000000 -0.0000000 )
                  (  0.0000000  0.0000000  1.0000000 )


   Cartesian axes

     site n.     atom                  positions (alat units)
         1        K      tau(   1) = (   1.0004525   0.4687463   0.4675106  )
         2        K      tau(   2) = (   0.5054292   1.7083763   1.0577596  )
         3        Ti     tau(   3) = (   0.5038148   1.5669380   0.2178957  )
         4        Ti     tau(   4) = (   1.0053488   1.3756728   0.4365171  )
         5        Ti     tau(   5) = (   0.5017680   1.1816394   0.6505800  )
         6        Ti     tau(   6) = (   1.0041137   0.9954831   0.8746901  )
         7        Ti     tau(   7) = (   1.5005329   0.8014498   1.0887531  )
         8        S      tau(   8) = (   1.1722903   1.7482654   0.3819582  )
         9        S      tau(   9) = (   0.6641215   0.1865821   0.1641354  )
        10        S      tau(  10) = (   0.6679874   1.1801975   1.0350178  )
        11        S      tau(  11) = (   1.1684614   1.3700502   0.8170480  )
        12        S      tau(  12) = (   0.6721801   1.5594605   0.5942039  )
        13        S      tau(  13) = (   0.8378661   2.3759507   0.9310663  )
        14        S      tau(  14) = (   0.3374203   0.8070724   0.7082222  )
        15        S      tau(  15) = (   0.8378943   0.9969250   0.4902523  )
        16        S      tau(  16) = (   0.3393438   1.1890052   0.2716561  )
        17        S      tau(  17) = (   0.8353394   1.3856106   0.0538333  )

   Crystallographic axes

     site n.     atom                  positions (cryst. coord.)
         1        K      tau(   1) = (  0.7845630  0.0709760  0.4291140  )
         2        K      tau(   2) = (  0.0154370  0.5290240  0.9708860  )
         3        Ti     tau(   3) = (  0.4000000  0.8000000  0.2000000  )
         4        Ti     tau(   4) = (  0.8015500  0.5997450  0.4006660  )
         5        Ti     tau(   5) = (  0.2000860  0.3998230  0.5971480  )
         6        Ti     tau(   6) = (  0.5999140  0.2001770  0.8028520  )
         7        Ti     tau(   7) = (  0.9984500  0.0002550  0.9993340  )
         8        S      tau(   8) = (  0.9926740  0.8344800  0.3505880  )
         9        S      tau(   9) = (  0.5882740  0.0374380  0.1506550  )
        10        S      tau(  10) = (  0.1896940  0.2381460  0.9500120  )
        11        S      tau(  11) = (  0.7898560  0.4373250  0.7499440  )
        12        S      tau(  12) = (  0.3955030  0.6382920  0.5454020  )
        13        S      tau(  13) = (  0.4044970  0.9617080  0.8545980  )
        14        S      tau(  14) = (  0.0101440  0.1626750  0.6500560  )
        15        S      tau(  15) = (  0.6103060  0.3618540  0.4499880  )
        16        S      tau(  16) = (  0.2117260  0.5625620  0.2493450  )
        17        S      tau(  17) = (  0.8073260  0.7655200  0.0494120  )

     number of k points=   170  Marzari-Vanderbilt smearing, width (Ry)=  0.0200
                       cart. coord. in units 2pi/alat
        k(    1) = (   0.0000000   0.0000000   0.0000000), wk =   0.0029762
        k(    2) = (   0.0000000   0.0000000   0.1311243), wk =   0.0059524
        k(    3) = (   0.0000000   0.0000000   0.2622486), wk =   0.0059524
        k(    4) = (   0.0000000   0.0000000   0.3933729), wk =   0.0059524
        k(    5) = (   0.0000000   0.0947891  -0.0697369), wk =   0.0059524
        k(    6) = (   0.0000000   0.0947891   0.0613874), wk =   0.0059524
        k(    7) = (   0.0000000   0.0947891   0.1925118), wk =   0.0059524
        k(    8) = (   0.0000000   0.0947891   0.3236361), wk =   0.0059524
        k(    9) = (   0.0000000   0.0947891  -0.4631098), wk =   0.0059524
        k(   10) = (   0.0000000   0.0947891  -0.3319855), wk =   0.0059524
        k(   11) = (   0.0000000   0.0947891  -0.2008612), wk =   0.0059524
        k(   12) = (   0.0000000   0.1895783  -0.1394737), wk =   0.0059524
        k(   13) = (   0.0000000   0.1895783  -0.0083494), wk =   0.0059524
        k(   14) = (   0.0000000   0.1895783   0.1227749), wk =   0.0059524
        k(   15) = (   0.0000000   0.1895783   0.2538992), wk =   0.0059524
        k(   16) = (   0.0000000   0.1895783  -0.5328467), wk =   0.0059524
        k(   17) = (   0.0000000   0.1895783  -0.4017224), wk =   0.0059524
        k(   18) = (   0.0000000   0.1895783  -0.2705981), wk =   0.0059524
        k(   19) = (   0.0000000  -0.2843674   0.2092106), wk =   0.0029762
        k(   20) = (   0.0000000  -0.2843674   0.3403349), wk =   0.0059524
        k(   21) = (   0.0000000  -0.2843674   0.4714592), wk =   0.0059524
        k(   22) = (   0.0000000  -0.2843674   0.6025836), wk =   0.0059524
        k(   23) = (   0.1250000  -0.0002961  -0.0574263), wk =   0.0059524
        k(   24) = (   0.1250000  -0.0002961   0.0736980), wk =   0.0059524
        k(   25) = (   0.1250000  -0.0002961   0.2048223), wk =   0.0059524
        k(   26) = (   0.1250000  -0.0002961   0.3359466), wk =   0.0059524
        k(   27) = (   0.1250000  -0.0002961  -0.4507993), wk =   0.0059524
        k(   28) = (   0.1250000  -0.0002961  -0.3196749), wk =   0.0059524
        k(   29) = (   0.1250000  -0.0002961  -0.1885506), wk =   0.0059524
        k(   30) = (   0.1250000   0.0944931  -0.1271632), wk =   0.0059524
        k(   31) = (   0.1250000   0.0944931   0.0039611), wk =   0.0059524
        k(   32) = (   0.1250000   0.0944931   0.1350854), wk =   0.0059524
        k(   33) = (   0.1250000   0.0944931   0.2662097), wk =   0.0059524
        k(   34) = (   0.1250000   0.0944931  -0.5205361), wk =   0.0059524
        k(   35) = (   0.1250000   0.0944931  -0.3894118), wk =   0.0059524
        k(   36) = (   0.1250000   0.0944931  -0.2582875), wk =   0.0059524
        k(   37) = (   0.1250000   0.1892822  -0.1969001), wk =   0.0059524
        k(   38) = (   0.1250000   0.1892822  -0.0657758), wk =   0.0059524
        k(   39) = (   0.1250000   0.1892822   0.0653486), wk =   0.0059524
        k(   40) = (   0.1250000   0.1892822   0.1964729), wk =   0.0059524
        k(   41) = (   0.1250000   0.1892822  -0.5902730), wk =   0.0059524
        k(   42) = (   0.1250000   0.1892822  -0.4591487), wk =   0.0059524
        k(   43) = (   0.1250000   0.1892822  -0.3280244), wk =   0.0059524
        k(   44) = (   0.1250000  -0.2846635   0.1517843), wk =   0.0059524
        k(   45) = (   0.1250000  -0.2846635   0.2829086), wk =   0.0059524
        k(   46) = (   0.1250000  -0.2846635   0.4140329), wk =   0.0059524
        k(   47) = (   0.1250000  -0.2846635   0.5451572), wk =   0.0059524
        k(   48) = (   0.1250000  -0.2846635  -0.2415886), wk =   0.0059524
        k(   49) = (   0.1250000  -0.2846635  -0.1104643), wk =   0.0059524
        k(   50) = (   0.1250000  -0.2846635   0.0206600), wk =   0.0059524
        k(   51) = (   0.1250000  -0.1898743   0.0820474), wk =   0.0059524
        k(   52) = (   0.1250000  -0.1898743   0.2131717), wk =   0.0059524
        k(   53) = (   0.1250000  -0.1898743   0.3442960), wk =   0.0059524
        k(   54) = (   0.1250000  -0.1898743   0.4754204), wk =   0.0059524
        k(   55) = (   0.1250000  -0.1898743  -0.3113255), wk =   0.0059524
        k(   56) = (   0.1250000  -0.1898743  -0.1802012), wk =   0.0059524
        k(   57) = (   0.1250000  -0.1898743  -0.0490769), wk =   0.0059524
        k(   58) = (   0.1250000  -0.0950852   0.0123105), wk =   0.0059524
        k(   59) = (   0.1250000  -0.0950852   0.1434349), wk =   0.0059524
        k(   60) = (   0.1250000  -0.0950852   0.2745592), wk =   0.0059524
        k(   61) = (   0.1250000  -0.0950852   0.4056835), wk =   0.0059524
        k(   62) = (   0.1250000  -0.0950852  -0.3810624), wk =   0.0059524
        k(   63) = (   0.1250000  -0.0950852  -0.2499381), wk =   0.0059524
        k(   64) = (   0.1250000  -0.0950852  -0.1188138), wk =   0.0059524
        k(   65) = (   0.2500000  -0.0005921  -0.1148526), wk =   0.0059524
        k(   66) = (   0.2500000  -0.0005921   0.0162717), wk =   0.0059524
        k(   67) = (   0.2500000  -0.0005921   0.1473960), wk =   0.0059524
        k(   68) = (   0.2500000  -0.0005921   0.2785203), wk =   0.0059524
        k(   69) = (   0.2500000  -0.0005921  -0.5082256), wk =   0.0059524
        k(   70) = (   0.2500000  -0.0005921  -0.3771013), wk =   0.0059524
        k(   71) = (   0.2500000  -0.0005921  -0.2459770), wk =   0.0059524
        k(   72) = (   0.2500000   0.0941970  -0.1845895), wk =   0.0059524
        k(   73) = (   0.2500000   0.0941970  -0.0534652), wk =   0.0059524
        k(   74) = (   0.2500000   0.0941970   0.0776591), wk =   0.0059524
        k(   75) = (   0.2500000   0.0941970   0.2087834), wk =   0.0059524
        k(   76) = (   0.2500000   0.0941970  -0.5779625), wk =   0.0059524
        k(   77) = (   0.2500000   0.0941970  -0.4468381), wk =   0.0059524
        k(   78) = (   0.2500000   0.0941970  -0.3157138), wk =   0.0059524
        k(   79) = (   0.2500000   0.1889862  -0.2543264), wk =   0.0059524
        k(   80) = (   0.2500000   0.1889862  -0.1232021), wk =   0.0059524
        k(   81) = (   0.2500000   0.1889862   0.0079222), wk =   0.0059524
        k(   82) = (   0.2500000   0.1889862   0.1390465), wk =   0.0059524
        k(   83) = (   0.2500000   0.1889862  -0.6476993), wk =   0.0059524
        k(   84) = (   0.2500000   0.1889862  -0.5165750), wk =   0.0059524
        k(   85) = (   0.2500000   0.1889862  -0.3854507), wk =   0.0059524
        k(   86) = (   0.2500000  -0.2849595   0.0943580), wk =   0.0059524
        k(   87) = (   0.2500000  -0.2849595   0.2254823), wk =   0.0059524
        k(   88) = (   0.2500000  -0.2849595   0.3566066), wk =   0.0059524
        k(   89) = (   0.2500000  -0.2849595   0.4877309), wk =   0.0059524
        k(   90) = (   0.2500000  -0.2849595  -0.2990150), wk =   0.0059524
        k(   91) = (   0.2500000  -0.2849595  -0.1678907), wk =   0.0059524
        k(   92) = (   0.2500000  -0.2849595  -0.0367663), wk =   0.0059524
        k(   93) = (   0.2500000  -0.1901704   0.0246211), wk =   0.0059524
        k(   94) = (   0.2500000  -0.1901704   0.1557454), wk =   0.0059524
        k(   95) = (   0.2500000  -0.1901704   0.2868697), wk =   0.0059524
        k(   96) = (   0.2500000  -0.1901704   0.4179940), wk =   0.0059524
        k(   97) = (   0.2500000  -0.1901704  -0.3687518), wk =   0.0059524
        k(   98) = (   0.2500000  -0.1901704  -0.2376275), wk =   0.0059524
        k(   99) = (   0.2500000  -0.1901704  -0.1065032), wk =   0.0059524
        k(  100) = (   0.2500000  -0.0953813  -0.0451158), wk =   0.0059524
        k(  101) = (   0.2500000  -0.0953813   0.0860085), wk =   0.0059524
        k(  102) = (   0.2500000  -0.0953813   0.2171329), wk =   0.0059524
        k(  103) = (   0.2500000  -0.0953813   0.3482572), wk =   0.0059524
        k(  104) = (   0.2500000  -0.0953813  -0.4384887), wk =   0.0059524
        k(  105) = (   0.2500000  -0.0953813  -0.3073644), wk =   0.0059524
        k(  106) = (   0.2500000  -0.0953813  -0.1762401), wk =   0.0059524
        k(  107) = (   0.3750000  -0.0008882  -0.1722790), wk =   0.0059524
        k(  108) = (   0.3750000  -0.0008882  -0.0411547), wk =   0.0059524
        k(  109) = (   0.3750000  -0.0008882   0.0899697), wk =   0.0059524
        k(  110) = (   0.3750000  -0.0008882   0.2210940), wk =   0.0059524
        k(  111) = (   0.3750000  -0.0008882  -0.5656519), wk =   0.0059524
        k(  112) = (   0.3750000  -0.0008882  -0.4345276), wk =   0.0059524
        k(  113) = (   0.3750000  -0.0008882  -0.3034033), wk =   0.0059524
        k(  114) = (   0.3750000   0.0939010  -0.2420158), wk =   0.0059524
        k(  115) = (   0.3750000   0.0939010  -0.1108915), wk =   0.0059524
        k(  116) = (   0.3750000   0.0939010   0.0202328), wk =   0.0059524
        k(  117) = (   0.3750000   0.0939010   0.1513571), wk =   0.0059524
        k(  118) = (   0.3750000   0.0939010  -0.6353888), wk =   0.0059524
        k(  119) = (   0.3750000   0.0939010  -0.5042645), wk =   0.0059524
        k(  120) = (   0.3750000   0.0939010  -0.3731402), wk =   0.0059524
        k(  121) = (   0.3750000   0.1886901  -0.3117527), wk =   0.0059524
        k(  122) = (   0.3750000   0.1886901  -0.1806284), wk =   0.0059524
        k(  123) = (   0.3750000   0.1886901  -0.0495041), wk =   0.0059524
        k(  124) = (   0.3750000   0.1886901   0.0816202), wk =   0.0059524
        k(  125) = (   0.3750000   0.1886901  -0.7051257), wk =   0.0059524
        k(  126) = (   0.3750000   0.1886901  -0.5740013), wk =   0.0059524
        k(  127) = (   0.3750000   0.1886901  -0.4428770), wk =   0.0059524
        k(  128) = (   0.3750000  -0.2852556   0.0369316), wk =   0.0059524
        k(  129) = (   0.3750000  -0.2852556   0.1680560), wk =   0.0059524
        k(  130) = (   0.3750000  -0.2852556   0.2991803), wk =   0.0059524
        k(  131) = (   0.3750000  -0.2852556   0.4303046), wk =   0.0059524
        k(  132) = (   0.3750000  -0.2852556  -0.3564413), wk =   0.0059524
        k(  133) = (   0.3750000  -0.2852556  -0.2253170), wk =   0.0059524
        k(  134) = (   0.3750000  -0.2852556  -0.0941927), wk =   0.0059524
        k(  135) = (   0.3750000  -0.1904664  -0.0328052), wk =   0.0059524
        k(  136) = (   0.3750000  -0.1904664   0.0983191), wk =   0.0059524
        k(  137) = (   0.3750000  -0.1904664   0.2294434), wk =   0.0059524
        k(  138) = (   0.3750000  -0.1904664   0.3605677), wk =   0.0059524
        k(  139) = (   0.3750000  -0.1904664  -0.4261782), wk =   0.0059524
        k(  140) = (   0.3750000  -0.1904664  -0.2950538), wk =   0.0059524
        k(  141) = (   0.3750000  -0.1904664  -0.1639295), wk =   0.0059524
        k(  142) = (   0.3750000  -0.0956773  -0.1025421), wk =   0.0059524
        k(  143) = (   0.3750000  -0.0956773   0.0285822), wk =   0.0059524
        k(  144) = (   0.3750000  -0.0956773   0.1597065), wk =   0.0059524
        k(  145) = (   0.3750000  -0.0956773   0.2908308), wk =   0.0059524
        k(  146) = (   0.3750000  -0.0956773  -0.4959150), wk =   0.0059524
        k(  147) = (   0.3750000  -0.0956773  -0.3647907), wk =   0.0059524
        k(  148) = (   0.3750000  -0.0956773  -0.2336664), wk =   0.0059524
        k(  149) = (  -0.5000000   0.0011842   0.2297053), wk =   0.0029762
        k(  150) = (  -0.5000000   0.0011842   0.3608296), wk =   0.0059524
        k(  151) = (  -0.5000000   0.0011842   0.4919539), wk =   0.0059524
        k(  152) = (  -0.5000000   0.0011842   0.6230782), wk =   0.0059524
        k(  153) = (  -0.5000000   0.0959734   0.1599684), wk =   0.0059524
        k(  154) = (  -0.5000000   0.0959734   0.2910927), wk =   0.0059524
        k(  155) = (  -0.5000000   0.0959734   0.4222170), wk =   0.0059524
        k(  156) = (  -0.5000000   0.0959734   0.5533414), wk =   0.0059524
        k(  157) = (  -0.5000000   0.0959734  -0.2334045), wk =   0.0059524
        k(  158) = (  -0.5000000   0.0959734  -0.1022802), wk =   0.0059524
        k(  159) = (  -0.5000000   0.0959734   0.0288441), wk =   0.0059524
        k(  160) = (  -0.5000000   0.1907625   0.0902315), wk =   0.0059524
        k(  161) = (  -0.5000000   0.1907625   0.2213559), wk =   0.0059524
        k(  162) = (  -0.5000000   0.1907625   0.3524802), wk =   0.0059524
        k(  163) = (  -0.5000000   0.1907625   0.4836045), wk =   0.0059524
        k(  164) = (  -0.5000000   0.1907625  -0.3031414), wk =   0.0059524
        k(  165) = (  -0.5000000   0.1907625  -0.1720171), wk =   0.0059524
        k(  166) = (  -0.5000000   0.1907625  -0.0408928), wk =   0.0059524
        k(  167) = (  -0.5000000  -0.2831832   0.4389159), wk =   0.0029762
        k(  168) = (  -0.5000000  -0.2831832   0.5700402), wk =   0.0059524
        k(  169) = (  -0.5000000  -0.2831832   0.7011645), wk =   0.0059524
        k(  170) = (  -0.5000000  -0.2831832   0.8322889), wk =   0.0059524

                       cryst. coord.
        k(    1) = (   0.0000000   0.0000000   0.0000000), wk =   0.0029762
        k(    2) = (   0.0000000   0.0000000   0.1428571), wk =   0.0059524
        k(    3) = (   0.0000000   0.0000000   0.2857143), wk =   0.0059524
        k(    4) = (   0.0000000   0.0000000   0.4285714), wk =   0.0059524
        k(    5) = (   0.0000000   0.1666667   0.0000000), wk =   0.0059524
        k(    6) = (   0.0000000   0.1666667   0.1428571), wk =   0.0059524
        k(    7) = (   0.0000000   0.1666667   0.2857143), wk =   0.0059524
        k(    8) = (   0.0000000   0.1666667   0.4285714), wk =   0.0059524
        k(    9) = (   0.0000000   0.1666667  -0.4285714), wk =   0.0059524
        k(   10) = (   0.0000000   0.1666667  -0.2857143), wk =   0.0059524
        k(   11) = (   0.0000000   0.1666667  -0.1428571), wk =   0.0059524
        k(   12) = (   0.0000000   0.3333333   0.0000000), wk =   0.0059524
        k(   13) = (   0.0000000   0.3333333   0.1428571), wk =   0.0059524
        k(   14) = (   0.0000000   0.3333333   0.2857143), wk =   0.0059524
        k(   15) = (   0.0000000   0.3333333   0.4285714), wk =   0.0059524
        k(   16) = (   0.0000000   0.3333333  -0.4285714), wk =   0.0059524
        k(   17) = (   0.0000000   0.3333333  -0.2857143), wk =   0.0059524
        k(   18) = (   0.0000000   0.3333333  -0.1428571), wk =   0.0059524
        k(   19) = (   0.0000000  -0.5000000  -0.0000000), wk =   0.0029762
        k(   20) = (   0.0000000  -0.5000000   0.1428571), wk =   0.0059524
        k(   21) = (   0.0000000  -0.5000000   0.2857143), wk =   0.0059524
        k(   22) = (   0.0000000  -0.5000000   0.4285714), wk =   0.0059524
        k(   23) = (   0.1250000   0.0000000  -0.0000000), wk =   0.0059524
        k(   24) = (   0.1250000   0.0000000   0.1428571), wk =   0.0059524
        k(   25) = (   0.1250000   0.0000000   0.2857143), wk =   0.0059524
        k(   26) = (   0.1250000   0.0000000   0.4285714), wk =   0.0059524
        k(   27) = (   0.1250000   0.0000000  -0.4285714), wk =   0.0059524
        k(   28) = (   0.1250000   0.0000000  -0.2857143), wk =   0.0059524
        k(   29) = (   0.1250000   0.0000000  -0.1428571), wk =   0.0059524
        k(   30) = (   0.1250000   0.1666667   0.0000000), wk =   0.0059524
        k(   31) = (   0.1250000   0.1666667   0.1428571), wk =   0.0059524
        k(   32) = (   0.1250000   0.1666667   0.2857143), wk =   0.0059524
        k(   33) = (   0.1250000   0.1666667   0.4285714), wk =   0.0059524
        k(   34) = (   0.1250000   0.1666667  -0.4285714), wk =   0.0059524
        k(   35) = (   0.1250000   0.1666667  -0.2857143), wk =   0.0059524
        k(   36) = (   0.1250000   0.1666667  -0.1428571), wk =   0.0059524
        k(   37) = (   0.1250000   0.3333333  -0.0000000), wk =   0.0059524
        k(   38) = (   0.1250000   0.3333333   0.1428571), wk =   0.0059524
        k(   39) = (   0.1250000   0.3333333   0.2857143), wk =   0.0059524
        k(   40) = (   0.1250000   0.3333333   0.4285714), wk =   0.0059524
        k(   41) = (   0.1250000   0.3333333  -0.4285714), wk =   0.0059524
        k(   42) = (   0.1250000   0.3333333  -0.2857143), wk =   0.0059524
        k(   43) = (   0.1250000   0.3333333  -0.1428571), wk =   0.0059524
        k(   44) = (   0.1250000  -0.5000000   0.0000000), wk =   0.0059524
        k(   45) = (   0.1250000  -0.5000000   0.1428571), wk =   0.0059524
        k(   46) = (   0.1250000  -0.5000000   0.2857143), wk =   0.0059524
        k(   47) = (   0.1250000  -0.5000000   0.4285714), wk =   0.0059524
        k(   48) = (   0.1250000  -0.5000000  -0.4285714), wk =   0.0059524
        k(   49) = (   0.1250000  -0.5000000  -0.2857143), wk =   0.0059524
        k(   50) = (   0.1250000  -0.5000000  -0.1428571), wk =   0.0059524
        k(   51) = (   0.1250000  -0.3333333  -0.0000000), wk =   0.0059524
        k(   52) = (   0.1250000  -0.3333333   0.1428571), wk =   0.0059524
        k(   53) = (   0.1250000  -0.3333333   0.2857143), wk =   0.0059524
        k(   54) = (   0.1250000  -0.3333333   0.4285714), wk =   0.0059524
        k(   55) = (   0.1250000  -0.3333333  -0.4285714), wk =   0.0059524
        k(   56) = (   0.1250000  -0.3333333  -0.2857143), wk =   0.0059524
        k(   57) = (   0.1250000  -0.3333333  -0.1428571), wk =   0.0059524
        k(   58) = (   0.1250000  -0.1666667  -0.0000000), wk =   0.0059524
        k(   59) = (   0.1250000  -0.1666667   0.1428571), wk =   0.0059524
        k(   60) = (   0.1250000  -0.1666667   0.2857143), wk =   0.0059524
        k(   61) = (   0.1250000  -0.1666667   0.4285714), wk =   0.0059524
        k(   62) = (   0.1250000  -0.1666667  -0.4285714), wk =   0.0059524
        k(   63) = (   0.1250000  -0.1666667  -0.2857143), wk =   0.0059524
        k(   64) = (   0.1250000  -0.1666667  -0.1428571), wk =   0.0059524
        k(   65) = (   0.2500000   0.0000000  -0.0000000), wk =   0.0059524
        k(   66) = (   0.2500000   0.0000000   0.1428571), wk =   0.0059524
        k(   67) = (   0.2500000   0.0000000   0.2857143), wk =   0.0059524
        k(   68) = (   0.2500000   0.0000000   0.4285714), wk =   0.0059524
        k(   69) = (   0.2500000   0.0000000  -0.4285714), wk =   0.0059524
        k(   70) = (   0.2500000   0.0000000  -0.2857143), wk =   0.0059524
        k(   71) = (   0.2500000   0.0000000  -0.1428571), wk =   0.0059524
        k(   72) = (   0.2500000   0.1666667   0.0000000), wk =   0.0059524
        k(   73) = (   0.2500000   0.1666667   0.1428571), wk =   0.0059524
        k(   74) = (   0.2500000   0.1666667   0.2857143), wk =   0.0059524
        k(   75) = (   0.2500000   0.1666667   0.4285714), wk =   0.0059524
        k(   76) = (   0.2500000   0.1666667  -0.4285714), wk =   0.0059524
        k(   77) = (   0.2500000   0.1666667  -0.2857143), wk =   0.0059524
        k(   78) = (   0.2500000   0.1666667  -0.1428571), wk =   0.0059524
        k(   79) = (   0.2500000   0.3333333   0.0000000), wk =   0.0059524
        k(   80) = (   0.2500000   0.3333333   0.1428571), wk =   0.0059524
        k(   81) = (   0.2500000   0.3333333   0.2857143), wk =   0.0059524
        k(   82) = (   0.2500000   0.3333333   0.4285714), wk =   0.0059524
        k(   83) = (   0.2500000   0.3333333  -0.4285714), wk =   0.0059524
        k(   84) = (   0.2500000   0.3333333  -0.2857143), wk =   0.0059524
        k(   85) = (   0.2500000   0.3333333  -0.1428571), wk =   0.0059524
        k(   86) = (   0.2500000  -0.5000000   0.0000000), wk =   0.0059524
        k(   87) = (   0.2500000  -0.5000000   0.1428571), wk =   0.0059524
        k(   88) = (   0.2500000  -0.5000000   0.2857143), wk =   0.0059524
        k(   89) = (   0.2500000  -0.5000000   0.4285714), wk =   0.0059524
        k(   90) = (   0.2500000  -0.5000000  -0.4285714), wk =   0.0059524
        k(   91) = (   0.2500000  -0.5000000  -0.2857143), wk =   0.0059524
        k(   92) = (   0.2500000  -0.5000000  -0.1428571), wk =   0.0059524
        k(   93) = (   0.2500000  -0.3333333  -0.0000000), wk =   0.0059524
        k(   94) = (   0.2500000  -0.3333333   0.1428571), wk =   0.0059524
        k(   95) = (   0.2500000  -0.3333333   0.2857143), wk =   0.0059524
        k(   96) = (   0.2500000  -0.3333333   0.4285714), wk =   0.0059524
        k(   97) = (   0.2500000  -0.3333333  -0.4285714), wk =   0.0059524
        k(   98) = (   0.2500000  -0.3333333  -0.2857143), wk =   0.0059524
        k(   99) = (   0.2500000  -0.3333333  -0.1428571), wk =   0.0059524
        k(  100) = (   0.2500000  -0.1666667   0.0000000), wk =   0.0059524
        k(  101) = (   0.2500000  -0.1666667   0.1428571), wk =   0.0059524
        k(  102) = (   0.2500000  -0.1666667   0.2857143), wk =   0.0059524
        k(  103) = (   0.2500000  -0.1666667   0.4285714), wk =   0.0059524
        k(  104) = (   0.2500000  -0.1666667  -0.4285714), wk =   0.0059524
        k(  105) = (   0.2500000  -0.1666667  -0.2857143), wk =   0.0059524
        k(  106) = (   0.2500000  -0.1666667  -0.1428571), wk =   0.0059524
        k(  107) = (   0.3750000   0.0000000  -0.0000000), wk =   0.0059524
        k(  108) = (   0.3750000   0.0000000   0.1428571), wk =   0.0059524
        k(  109) = (   0.3750000   0.0000000   0.2857143), wk =   0.0059524
        k(  110) = (   0.3750000   0.0000000   0.4285714), wk =   0.0059524
        k(  111) = (   0.3750000   0.0000000  -0.4285714), wk =   0.0059524
        k(  112) = (   0.3750000   0.0000000  -0.2857143), wk =   0.0059524
        k(  113) = (   0.3750000   0.0000000  -0.1428571), wk =   0.0059524
        k(  114) = (   0.3750000   0.1666667  -0.0000000), wk =   0.0059524
        k(  115) = (   0.3750000   0.1666667   0.1428571), wk =   0.0059524
        k(  116) = (   0.3750000   0.1666667   0.2857143), wk =   0.0059524
        k(  117) = (   0.3750000   0.1666667   0.4285714), wk =   0.0059524
        k(  118) = (   0.3750000   0.1666667  -0.4285714), wk =   0.0059524
        k(  119) = (   0.3750000   0.1666667  -0.2857143), wk =   0.0059524
        k(  120) = (   0.3750000   0.1666667  -0.1428571), wk =   0.0059524
        k(  121) = (   0.3750000   0.3333333   0.0000000), wk =   0.0059524
        k(  122) = (   0.3750000   0.3333333   0.1428571), wk =   0.0059524
        k(  123) = (   0.3750000   0.3333333   0.2857143), wk =   0.0059524
        k(  124) = (   0.3750000   0.3333333   0.4285714), wk =   0.0059524
        k(  125) = (   0.3750000   0.3333333  -0.4285714), wk =   0.0059524
        k(  126) = (   0.3750000   0.3333333  -0.2857143), wk =   0.0059524
        k(  127) = (   0.3750000   0.3333333  -0.1428571), wk =   0.0059524
        k(  128) = (   0.3750000  -0.5000000  -0.0000000), wk =   0.0059524
        k(  129) = (   0.3750000  -0.5000000   0.1428571), wk =   0.0059524
        k(  130) = (   0.3750000  -0.5000000   0.2857143), wk =   0.0059524
        k(  131) = (   0.3750000  -0.5000000   0.4285714), wk =   0.0059524
        k(  132) = (   0.3750000  -0.5000000  -0.4285714), wk =   0.0059524
        k(  133) = (   0.3750000  -0.5000000  -0.2857143), wk =   0.0059524
        k(  134) = (   0.3750000  -0.5000000  -0.1428571), wk =   0.0059524
        k(  135) = (   0.3750000  -0.3333333  -0.0000000), wk =   0.0059524
        k(  136) = (   0.3750000  -0.3333333   0.1428571), wk =   0.0059524
        k(  137) = (   0.3750000  -0.3333333   0.2857143), wk =   0.0059524
        k(  138) = (   0.3750000  -0.3333333   0.4285714), wk =   0.0059524
        k(  139) = (   0.3750000  -0.3333333  -0.4285714), wk =   0.0059524
        k(  140) = (   0.3750000  -0.3333333  -0.2857143), wk =   0.0059524
        k(  141) = (   0.3750000  -0.3333333  -0.1428571), wk =   0.0059524
        k(  142) = (   0.3750000  -0.1666667  -0.0000000), wk =   0.0059524
        k(  143) = (   0.3750000  -0.1666667   0.1428571), wk =   0.0059524
        k(  144) = (   0.3750000  -0.1666667   0.2857143), wk =   0.0059524
        k(  145) = (   0.3750000  -0.1666667   0.4285714), wk =   0.0059524
        k(  146) = (   0.3750000  -0.1666667  -0.4285714), wk =   0.0059524
        k(  147) = (   0.3750000  -0.1666667  -0.2857143), wk =   0.0059524
        k(  148) = (   0.3750000  -0.1666667  -0.1428571), wk =   0.0059524
        k(  149) = (  -0.5000000  -0.0000000   0.0000000), wk =   0.0029762
        k(  150) = (  -0.5000000  -0.0000000   0.1428571), wk =   0.0059524
        k(  151) = (  -0.5000000  -0.0000000   0.2857143), wk =   0.0059524
        k(  152) = (  -0.5000000  -0.0000000   0.4285714), wk =   0.0059524
        k(  153) = (  -0.5000000   0.1666667   0.0000000), wk =   0.0059524
        k(  154) = (  -0.5000000   0.1666667   0.1428571), wk =   0.0059524
        k(  155) = (  -0.5000000   0.1666667   0.2857143), wk =   0.0059524
        k(  156) = (  -0.5000000   0.1666667   0.4285714), wk =   0.0059524
        k(  157) = (  -0.5000000   0.1666667  -0.4285714), wk =   0.0059524
        k(  158) = (  -0.5000000   0.1666667  -0.2857143), wk =   0.0059524
        k(  159) = (  -0.5000000   0.1666667  -0.1428571), wk =   0.0059524
        k(  160) = (  -0.5000000   0.3333333  -0.0000000), wk =   0.0059524
        k(  161) = (  -0.5000000   0.3333333   0.1428571), wk =   0.0059524
        k(  162) = (  -0.5000000   0.3333333   0.2857143), wk =   0.0059524
        k(  163) = (  -0.5000000   0.3333333   0.4285714), wk =   0.0059524
        k(  164) = (  -0.5000000   0.3333333  -0.4285714), wk =   0.0059524
        k(  165) = (  -0.5000000   0.3333333  -0.2857143), wk =   0.0059524
        k(  166) = (  -0.5000000   0.3333333  -0.1428571), wk =   0.0059524
        k(  167) = (  -0.5000000  -0.5000000  -0.0000000), wk =   0.0029762
        k(  168) = (  -0.5000000  -0.5000000   0.1428571), wk =   0.0059524
        k(  169) = (  -0.5000000  -0.5000000   0.2857143), wk =   0.0059524
        k(  170) = (  -0.5000000  -0.5000000   0.4285714), wk =   0.0059524

     Dense  grid:   460783 G-vectors     FFT dimensions: (  80, 135, 120)

     Smooth grid:   162881 G-vectors     FFT dimensions: (  60,  96,  80)

     Dynamical RAM for                 wfc:      25.79 MB

     Dynamical RAM for     wfc (w. buffer):    8794.59 MB

     Dynamical RAM for             U proj.:       7.77 MB

     Dynamical RAM for  U proj. (w. buff.):    2648.97 MB

     Dynamical RAM for           str. fact:      21.09 MB

     Dynamical RAM for           local pot:       0.00 MB

     Dynamical RAM for          nlocal pot:      95.08 MB

     Dynamical RAM for                qrad:      10.55 MB

     Dynamical RAM for          rho,v,vnew:     101.51 MB

     Dynamical RAM for               rhoin:      33.84 MB

     Dynamical RAM for            rho*nmix:     224.99 MB

     Dynamical RAM for           G-vectors:      27.61 MB

     Dynamical RAM for          h,s,v(r/c):       0.32 MB

     Dynamical RAM for          <psi|beta>:       0.39 MB

     Dynamical RAM for      wfcinit/wfcrot:      51.74 MB

     Dynamical RAM for           addusdens:    1385.11 MB

     Dynamical RAM for          addusforce:    1511.74 MB

     Dynamical RAM for         addusstress:    1423.78 MB

     Estimated static dynamical RAM per process >      11.54 GB

     Estimated max dynamical RAM per process >      13.24 GB

     Check: negative core charge=   -0.000003
     Generating pointlists ...
     new r_m :   0.2122 (alat units)  2.3480 (a.u.) for type    1
     new r_m :   0.1699 (alat units)  1.8798 (a.u.) for type    2
     new r_m :   0.1699 (alat units)  1.8798 (a.u.) for type    3

     Initial potential from superposition of free atoms

     starting charge     132.9623, renormalised to     138.0000

     negative rho (up, down):  3.640E-03 1.454E-03

     HUBBARD ENERGY =    0.6909  (Ry)

     STARTING HUBBARD OCCUPATIONS:

     =================== HUBBARD OCCUPATIONS ===================
     ------------------------ ATOM    3 ------------------------
     Tr[ns(  3)] (up, down, total) =   1.00000  0.00000  1.00000
     Atomic magnetic moment for atom   3 =   1.00000
     SPIN  1
     eigenvalues:
       0.200  0.200  0.200  0.200  0.200
     eigenvectors (columns):
       1.000  0.000  0.000  0.000  0.000
       0.000  1.000  0.000  0.000  0.000
       0.000  0.000  1.000  0.000  0.000
       0.000  0.000  0.000  1.000  0.000
       0.000  0.000  0.000  0.000  1.000
     occupation matrix ns (before diag.):
       0.200  0.000  0.000  0.000  0.000
       0.000  0.200  0.000  0.000  0.000
       0.000  0.000  0.200  0.000  0.000
       0.000  0.000  0.000  0.200  0.000
       0.000  0.000  0.000  0.000  0.200
     SPIN  2
     eigenvalues:
       0.000  0.000  0.000  0.000  0.000
     eigenvectors (columns):
       1.000  0.000  0.000  0.000  0.000
       0.000  1.000  0.000  0.000  0.000
       0.000  0.000  1.000  0.000  0.000
       0.000  0.000  0.000  1.000  0.000
       0.000  0.000  0.000  0.000  1.000
     occupation matrix ns (before diag.):
       0.000  0.000  0.000  0.000  0.000
       0.000  0.000  0.000  0.000  0.000
       0.000  0.000  0.000  0.000  0.000
       0.000  0.000  0.000  0.000  0.000
       0.000  0.000  0.000  0.000  0.000
     ------------------------ ATOM    4 ------------------------
     Tr[ns(  4)] (up, down, total) =   1.00000  0.00000  1.00000
     Atomic magnetic moment for atom   4 =   1.00000
     SPIN  1
     eigenvalues:
       0.200  0.200  0.200  0.200  0.200
     eigenvectors (columns):
       1.000  0.000  0.000  0.000  0.000
       0.000  1.000  0.000  0.000  0.000
       0.000  0.000  1.000  0.000  0.000
       0.000  0.000  0.000  1.000  0.000
       0.000  0.000  0.000  0.000  1.000
     occupation matrix ns (before diag.):
       0.200  0.000  0.000  0.000  0.000
       0.000  0.200  0.000  0.000  0.000
       0.000  0.000  0.200  0.000  0.000
       0.000  0.000  0.000  0.200  0.000
       0.000  0.000  0.000  0.000  0.200
     SPIN  2
     eigenvalues:
       0.000  0.000  0.000  0.000  0.000
     eigenvectors (columns):
       1.000  0.000  0.000  0.000  0.000
       0.000  1.000  0.000  0.000  0.000
       0.000  0.000  1.000  0.000  0.000
       0.000  0.000  0.000  1.000  0.000
       0.000  0.000  0.000  0.000  1.000
     occupation matrix ns (before diag.):
       0.000  0.000  0.000  0.000  0.000
       0.000  0.000  0.000  0.000  0.000
       0.000  0.000  0.000  0.000  0.000
       0.000  0.000  0.000  0.000  0.000
       0.000  0.000  0.000  0.000  0.000
     ------------------------ ATOM    5 ------------------------
     Tr[ns(  5)] (up, down, total) =   1.00000  0.00000  1.00000
     Atomic magnetic moment for atom   5 =   1.00000
     SPIN  1
     eigenvalues:
       0.200  0.200  0.200  0.200  0.200
     eigenvectors (columns):
       1.000  0.000  0.000  0.000  0.000
       0.000  1.000  0.000  0.000  0.000
       0.000  0.000  1.000  0.000  0.000
       0.000  0.000  0.000  1.000  0.000
       0.000  0.000  0.000  0.000  1.000
     occupation matrix ns (before diag.):
       0.200  0.000  0.000  0.000  0.000
       0.000  0.200  0.000  0.000  0.000
       0.000  0.000  0.200  0.000  0.000
       0.000  0.000  0.000  0.200  0.000
       0.000  0.000  0.000  0.000  0.200
     SPIN  2
     eigenvalues:
       0.000  0.000  0.000  0.000  0.000
     eigenvectors (columns):
       1.000  0.000  0.000  0.000  0.000
       0.000  1.000  0.000  0.000  0.000
       0.000  0.000  1.000  0.000  0.000
       0.000  0.000  0.000  1.000  0.000
       0.000  0.000  0.000  0.000  1.000
     occupation matrix ns (before diag.):
       0.000  0.000  0.000  0.000  0.000
       0.000  0.000  0.000  0.000  0.000
       0.000  0.000  0.000  0.000  0.000
       0.000  0.000  0.000  0.000  0.000
       0.000  0.000  0.000  0.000  0.000
     ------------------------ ATOM    6 ------------------------
     Tr[ns(  6)] (up, down, total) =   1.00000  0.00000  1.00000
     Atomic magnetic moment for atom   6 =   1.00000
     SPIN  1
     eigenvalues:
       0.200  0.200  0.200  0.200  0.200
     eigenvectors (columns):
       1.000  0.000  0.000  0.000  0.000
       0.000  1.000  0.000  0.000  0.000
       0.000  0.000  1.000  0.000  0.000
       0.000  0.000  0.000  1.000  0.000
       0.000  0.000  0.000  0.000  1.000
     occupation matrix ns (before diag.):
       0.200  0.000  0.000  0.000  0.000
       0.000  0.200  0.000  0.000  0.000
       0.000  0.000  0.200  0.000  0.000
       0.000  0.000  0.000  0.200  0.000
       0.000  0.000  0.000  0.000  0.200
     SPIN  2
     eigenvalues:
       0.000  0.000  0.000  0.000  0.000
     eigenvectors (columns):
       1.000  0.000  0.000  0.000  0.000
       0.000  1.000  0.000  0.000  0.000
       0.000  0.000  1.000  0.000  0.000
       0.000  0.000  0.000  1.000  0.000
       0.000  0.000  0.000  0.000  1.000
     occupation matrix ns (before diag.):
       0.000  0.000  0.000  0.000  0.000
       0.000  0.000  0.000  0.000  0.000
       0.000  0.000  0.000  0.000  0.000
       0.000  0.000  0.000  0.000  0.000
       0.000  0.000  0.000  0.000  0.000
     ------------------------ ATOM    7 ------------------------
     Tr[ns(  7)] (up, down, total) =   1.00000  0.00000  1.00000
     Atomic magnetic moment for atom   7 =   1.00000
     SPIN  1
     eigenvalues:
       0.200  0.200  0.200  0.200  0.200
     eigenvectors (columns):
       1.000  0.000  0.000  0.000  0.000
       0.000  1.000  0.000  0.000  0.000
       0.000  0.000  1.000  0.000  0.000
       0.000  0.000  0.000  1.000  0.000
       0.000  0.000  0.000  0.000  1.000
     occupation matrix ns (before diag.):
       0.200  0.000  0.000  0.000  0.000
       0.000  0.200  0.000  0.000  0.000
       0.000  0.000  0.200  0.000  0.000
       0.000  0.000  0.000  0.200  0.000
       0.000  0.000  0.000  0.000  0.200
     SPIN  2
     eigenvalues:
       0.000  0.000  0.000  0.000  0.000
     eigenvectors (columns):
       1.000  0.000  0.000  0.000  0.000
       0.000  1.000  0.000  0.000  0.000
       0.000  0.000  1.000  0.000  0.000
       0.000  0.000  0.000  1.000  0.000
       0.000  0.000  0.000  0.000  1.000
     occupation matrix ns (before diag.):
       0.000  0.000  0.000  0.000  0.000
       0.000  0.000  0.000  0.000  0.000
       0.000  0.000  0.000  0.000  0.000
       0.000  0.000  0.000  0.000  0.000
       0.000  0.000  0.000  0.000  0.000

     Number of occupied Hubbard levels =    5.0000

     Atomic wfc used for Hubbard projectors are orthogonalized

     Starting wfcs are  106 randomized atomic wfcs
     Checking if some PAW data can be deallocated... 

     total cpu time spent up to now is       18.2 secs

     Self-consistent Calculation
[tb_dev] Currently allocated     1.23E+00 Mbytes, locked:    0 /   3
[tb_pin] Currently allocated     0.00E+00 Mbytes, locked:    0 /   0

     iteration #  1     ecut=    60.00 Ry     beta= 0.70
     CG style diagonalization

---- Real-time Memory Report at c_bands before calling an iterative solver
         12293 MiB given to the printing process from OS
             0 MiB allocation reported by mallinfo(arena+hblkhd)
        415805 MiB available memory on the node where the printing process lives
     GPU memory used/free/total (MiB): 3348 / 61596 / 64944
------------------
     ethr =  1.00E-02,  avg # of iterations =  2.7

     =================== HUBBARD OCCUPATIONS ===================
     ------------------------ ATOM    3 ------------------------
     Tr[ns(  3)] (up, down, total) =   1.58795  0.49333  2.08127
     Atomic magnetic moment for atom   3 =   1.09462
     SPIN  1
     eigenvalues:
       0.254  0.289  0.293  0.376  0.377
     eigenvectors (columns):
      -0.199  0.392  0.287 -0.446 -0.725
      -0.063  0.736 -0.210 -0.341  0.542
       0.854  0.274  0.415  0.154 -0.015
       0.475 -0.189 -0.697 -0.442 -0.237
      -0.045  0.439 -0.463  0.682 -0.353
     occupation matrix ns (before diag.):
       0.351 -0.022  0.001  0.035 -0.005
      -0.022  0.325 -0.004  0.004 -0.037
       0.001 -0.004  0.266 -0.021  0.010
       0.035  0.004 -0.021  0.305 -0.017
      -0.005 -0.037  0.010 -0.017  0.341
     SPIN  2
     eigenvalues:
       0.051  0.056  0.057  0.163  0.166
     eigenvectors (columns):
      -0.106 -0.230 -0.613  0.500 -0.557
       0.058 -0.176 -0.691 -0.155  0.682
       0.887 -0.343 -0.004 -0.218 -0.218
       0.445  0.674 -0.061  0.552  0.200
      -0.016  0.587 -0.379 -0.611 -0.371
     occupation matrix ns (before diag.):
       0.117 -0.050  0.002  0.018 -0.010
      -0.050  0.110 -0.013  0.006 -0.017
       0.002 -0.013  0.063 -0.019  0.023
       0.018  0.006 -0.019  0.092 -0.044
      -0.010 -0.017  0.023 -0.044  0.111
     ------------------------ ATOM    4 ------------------------
     Tr[ns(  4)] (up, down, total) =   1.56581  0.48351  2.04932
     Atomic magnetic moment for atom   4 =   1.08230
     SPIN  1
     eigenvalues:
       0.250  0.282  0.287  0.372  0.375
     eigenvectors (columns):
       0.112 -0.208 -0.498  0.692 -0.465
      -0.035  0.325 -0.649 -0.595 -0.344
      -0.883 -0.348 -0.238  0.004  0.204
      -0.454  0.603  0.390  0.210 -0.484
       0.001  0.605 -0.349  0.350  0.624
     occupation matrix ns (before diag.):
       0.346 -0.021 -0.005  0.035 -0.004
      -0.021  0.327 -0.007  0.003 -0.038
      -0.005 -0.007  0.261 -0.022  0.012
       0.035  0.003 -0.022  0.302 -0.022
      -0.004 -0.038  0.012 -0.022  0.330
     SPIN  2
     eigenvalues:
       0.050  0.055  0.055  0.161  0.163
     eigenvectors (columns):
       0.140  0.528  0.365 -0.754  0.011
      -0.015  0.548  0.473  0.604 -0.334
      -0.882  0.319 -0.163 -0.014  0.308
      -0.450 -0.497  0.458 -0.218 -0.541
       0.030 -0.269  0.638  0.137  0.708
     occupation matrix ns (before diag.):
       0.115 -0.049  0.002  0.017 -0.010
      -0.049  0.105 -0.012  0.006 -0.017
       0.002 -0.012  0.062 -0.019  0.023
       0.017  0.006 -0.019  0.091 -0.044
      -0.010 -0.017  0.023 -0.044  0.111
     ------------------------ ATOM    5 ------------------------
     Tr[ns(  5)] (up, down, total) =   1.55446  0.47911  2.03357
     Atomic magnetic moment for atom   5 =   1.07535
     SPIN  1
     eigenvalues:
       0.246  0.280  0.284  0.372  0.373
     eigenvectors (columns):
      -0.078  0.436 -0.296 -0.661  0.528
       0.078  0.099 -0.744 -0.125 -0.644
       0.894  0.397  0.053  0.188  0.070
       0.434 -0.746 -0.009 -0.502  0.046
       0.015 -0.293 -0.596  0.509  0.547
     occupation matrix ns (before diag.):
       0.346 -0.023 -0.006  0.034 -0.003
      -0.023  0.322 -0.009  0.002 -0.037
      -0.006 -0.009  0.257 -0.021  0.012
       0.034  0.002 -0.021  0.297 -0.021
      -0.003 -0.037  0.012 -0.021  0.333
     SPIN  2
     eigenvalues:
       0.050  0.054  0.054  0.160  0.161
     eigenvectors (columns):
      -0.151  0.109 -0.627  0.051  0.755
      -0.004  0.054 -0.723  0.280 -0.629
       0.848  0.410 -0.121 -0.311  0.031
       0.507 -0.639  0.016  0.552  0.170
       0.010 -0.639 -0.261 -0.719 -0.075
     occupation matrix ns (before diag.):
       0.115 -0.049  0.001  0.017 -0.010
      -0.049  0.105 -0.011  0.005 -0.016
       0.001 -0.011  0.061 -0.020  0.023
       0.017  0.005 -0.020  0.088 -0.043
      -0.010 -0.016  0.023 -0.043  0.110
     ------------------------ ATOM    6 ------------------------
     Tr[ns(  6)] (up, down, total) =   1.55415  0.47910  2.03324
     Atomic magnetic moment for atom   6 =   1.07505
     SPIN  1
     eigenvalues:
       0.246  0.280  0.284  0.372  0.373
     eigenvectors (columns):
      -0.082  0.441 -0.287 -0.637  0.557
       0.073  0.116 -0.742 -0.152 -0.638
       0.892  0.401  0.059  0.190  0.062
       0.438 -0.743 -0.027 -0.502  0.066
       0.016 -0.282 -0.602  0.532  0.524
     occupation matrix ns (before diag.):
       0.346 -0.023 -0.006  0.034 -0.003
      -0.023  0.322 -0.009  0.002 -0.037
      -0.006 -0.009  0.257 -0.021  0.012
       0.034  0.002 -0.021  0.297 -0.022
      -0.003 -0.037  0.012 -0.022  0.333
     SPIN  2
     eigenvalues:
       0.050  0.054  0.054  0.160  0.161
     eigenvectors (columns):
      -0.152  0.104 -0.628  0.038  0.755
      -0.005  0.049 -0.724  0.290 -0.624
       0.847  0.412 -0.125 -0.312  0.026
       0.510 -0.637  0.019  0.549  0.179
       0.012 -0.641 -0.257 -0.718 -0.086
     occupation matrix ns (before diag.):
       0.115 -0.049  0.001  0.017 -0.010
      -0.049  0.105 -0.011  0.005 -0.016
       0.001 -0.011  0.061 -0.020  0.023
       0.017  0.005 -0.020  0.088 -0.043
      -0.010 -0.016  0.023 -0.043  0.110
     ------------------------ ATOM    7 ------------------------
     Tr[ns(  7)] (up, down, total) =   1.56584  0.48352  2.04936
     Atomic magnetic moment for atom   7 =   1.08232
     SPIN  1
     eigenvalues:
       0.250  0.282  0.286  0.372  0.375
     eigenvectors (columns):
       0.113 -0.202 -0.501  0.690 -0.469
      -0.036  0.333 -0.646 -0.597 -0.339
      -0.882 -0.350 -0.242  0.004  0.204
      -0.457  0.596  0.396  0.207 -0.486
      -0.002  0.609 -0.341  0.355  0.623
     occupation matrix ns (before diag.):
       0.346 -0.021 -0.005  0.035 -0.004
      -0.021  0.327 -0.007  0.002 -0.038
      -0.005 -0.007  0.261 -0.022  0.012
       0.035  0.002 -0.022  0.302 -0.022
      -0.004 -0.038  0.012 -0.022  0.330
     SPIN  2
     eigenvalues:
       0.050  0.055  0.055  0.161  0.163
     eigenvectors (columns):
       0.140  0.529  0.364 -0.754  0.010
      -0.015  0.548  0.472  0.605 -0.333
      -0.883  0.317 -0.161 -0.015  0.307
      -0.448 -0.498  0.460 -0.217 -0.541
       0.032 -0.268  0.638  0.136  0.708
     occupation matrix ns (before diag.):
       0.115 -0.049  0.002  0.017 -0.010
      -0.049  0.106 -0.012  0.006 -0.017
       0.002 -0.012  0.061 -0.019  0.023
       0.017  0.006 -0.019  0.091 -0.044
      -0.010 -0.017  0.023 -0.044  0.111

     Number of occupied Hubbard levels =   10.2468

     negative rho (up, down):  1.425E-03 5.453E-03

     HUBBARD ENERGY =    1.2826  (Ry)

     total cpu time spent up to now is      201.1 secs

     total energy              =   -1055.15151778 Ry
     estimated scf accuracy    <       3.88449254 Ry

     total magnetization       =     2.37 Bohr mag/cell
     absolute magnetization    =     7.98 Bohr mag/cell
[tb_dev] Currently allocated     0.00E+00 Mbytes, locked:    0 /   0
[tb_pin] Currently allocated     0.00E+00 Mbytes, locked:    0 /   0

     iteration #  2     ecut=    60.00 Ry     beta= 0.70
     CG style diagonalization

---- Real-time Memory Report at c_bands before calling an iterative solver
         12354 MiB given to the printing process from OS
             0 MiB allocation reported by mallinfo(arena+hblkhd)
        418146 MiB available memory on the node where the printing process lives
     GPU memory used/free/total (MiB): 3450 / 61494 / 64944
------------------
     ethr =  2.81E-03,  avg # of iterations =  3.9

     =================== HUBBARD OCCUPATIONS ===================
     ------------------------ ATOM    3 ------------------------
     Tr[ns(  3)] (up, down, total) =   1.22438  0.48975  1.71413
     Atomic magnetic moment for atom   3 =   0.73463
     SPIN  1
     eigenvalues:
       0.154  0.160  0.165  0.369  0.376
     eigenvectors (columns):
       0.423 -0.324 -0.175  0.731  0.388
       0.715  0.053 -0.203 -0.088 -0.661
      -0.180  0.122 -0.958 -0.139  0.128
      -0.098  0.850  0.038  0.504 -0.115
       0.518  0.394  0.098 -0.430  0.618
     occupation matrix ns (before diag.):
       0.303 -0.070 -0.009  0.067 -0.015
      -0.070  0.253 -0.014  0.008 -0.083
      -0.009 -0.014  0.172 -0.018  0.030
       0.067  0.008 -0.018  0.216 -0.060
      -0.015 -0.083  0.030 -0.060  0.280
     SPIN  2
     eigenvalues:
       0.039  0.040  0.045  0.180  0.186
     eigenvectors (columns):
      -0.270 -0.498  0.273  0.546  0.554
      -0.164 -0.696  0.129 -0.089 -0.682
      -0.500 -0.186 -0.798 -0.209  0.187
       0.616 -0.175 -0.521  0.546 -0.139
       0.520 -0.450  0.032 -0.594  0.417
     occupation matrix ns (before diag.):
       0.127 -0.062 -0.002  0.030 -0.011
      -0.062  0.109 -0.017  0.007 -0.034
      -0.002 -0.017  0.054 -0.017  0.029
       0.030  0.007 -0.017  0.085 -0.054
      -0.011 -0.034  0.029 -0.054  0.114
     ------------------------ ATOM    4 ------------------------
     Tr[ns(  4)] (up, down, total) =   1.39357  0.50477  1.89834
     Atomic magnetic moment for atom   4 =   0.88881
     SPIN  1
     eigenvalues:
       0.197  0.204  0.224  0.382  0.387
     eigenvectors (columns):
      -0.095  0.523 -0.163  0.824  0.104
       0.451  0.571 -0.055 -0.241 -0.640
      -0.260  0.398  0.857 -0.132  0.147
       0.545 -0.444  0.483  0.469 -0.229
       0.650  0.212 -0.047 -0.158  0.711
     occupation matrix ns (before diag.):
       0.327 -0.047 -0.020  0.063 -0.009
      -0.047  0.288 -0.012  0.005 -0.078
      -0.020 -0.012  0.225 -0.008  0.023
       0.063  0.005 -0.008  0.255 -0.046
      -0.009 -0.078  0.023 -0.046  0.298
     SPIN  2
     eigenvalues:
       0.041  0.042  0.049  0.184  0.188
     eigenvectors (columns):
      -0.382 -0.457 -0.199 -0.762  0.160
      -0.303 -0.662 -0.042  0.452 -0.514
      -0.481  0.010  0.831  0.075  0.269
       0.594 -0.236  0.518 -0.380 -0.422
       0.422 -0.545  0.008  0.256  0.678
     occupation matrix ns (before diag.):
       0.129 -0.061 -0.003  0.031 -0.012
      -0.061  0.110 -0.016  0.007 -0.034
      -0.003 -0.016  0.058 -0.017  0.030
       0.031  0.007 -0.017  0.090 -0.056
      -0.012 -0.034  0.030 -0.056  0.118
     ------------------------ ATOM    5 ------------------------
     Tr[ns(  5)] (up, down, total) =   1.59429  0.51068  2.10497
     Atomic magnetic moment for atom   5 =   1.08361
     SPIN  1
     eigenvalues:
       0.241  0.257  0.302  0.394  0.402
     eigenvectors (columns):
       0.422  0.019 -0.273 -0.210  0.839
       0.194  0.730 -0.080  0.650  0.023
       0.709  0.026  0.664 -0.152 -0.179
      -0.524  0.215  0.675 -0.020  0.473
      -0.085  0.648 -0.153 -0.714 -0.200
     occupation matrix ns (before diag.):
       0.365 -0.016 -0.030  0.053 -0.001
      -0.016  0.315 -0.019 -0.001 -0.063
      -0.030 -0.019  0.276  0.014  0.017
       0.053 -0.001  0.014  0.305 -0.017
      -0.001 -0.063  0.017 -0.017  0.333
     SPIN  2
     eigenvalues:
       0.042  0.044  0.051  0.185  0.189
     eigenvectors (columns):
      -0.548 -0.281  0.095 -0.456 -0.635
      -0.716 -0.137 -0.056  0.651  0.202
       0.007 -0.393 -0.877 -0.207  0.185
      -0.032  0.685 -0.469  0.227 -0.509
      -0.431  0.528 -0.009 -0.522  0.513
     occupation matrix ns (before diag.):
       0.131 -0.061 -0.004  0.032 -0.014
      -0.061  0.109 -0.013  0.006 -0.033
      -0.004 -0.013  0.060 -0.017  0.029
       0.032  0.006 -0.017  0.090 -0.055
      -0.014 -0.033  0.029 -0.055  0.120
     ------------------------ ATOM    6 ------------------------
     Tr[ns(  6)] (up, down, total) =   1.59541  0.51081  2.10622
     Atomic magnetic moment for atom   6 =   1.08460
     SPIN  1
     eigenvalues:
       0.241  0.257  0.302  0.394  0.402
     eigenvectors (columns):
       0.424  0.021 -0.270 -0.204  0.840
       0.190  0.731 -0.077  0.650  0.019
       0.704  0.028  0.670 -0.152 -0.178
      -0.530  0.209  0.671 -0.014  0.474
      -0.087  0.648 -0.149 -0.716 -0.194
     occupation matrix ns (before diag.):
       0.365 -0.016 -0.030  0.054 -0.001
      -0.016  0.315 -0.018 -0.001 -0.063
      -0.030 -0.018  0.277  0.014  0.016
       0.054 -0.001  0.014  0.305 -0.017
      -0.001 -0.063  0.016 -0.017  0.333
     SPIN  2
     eigenvalues:
       0.042  0.044  0.051  0.185  0.189
     eigenvectors (columns):
      -0.547 -0.284  0.095 -0.457 -0.635
      -0.715 -0.142 -0.056  0.651  0.202
       0.010 -0.392 -0.877 -0.207  0.185
      -0.036  0.685 -0.468  0.227 -0.509
      -0.434  0.525 -0.008 -0.522  0.513
     occupation matrix ns (before diag.):
       0.131 -0.061 -0.004  0.032 -0.014
      -0.061  0.109 -0.013  0.006 -0.033
      -0.004 -0.013  0.060 -0.017  0.029
       0.032  0.006 -0.017  0.090 -0.055
      -0.014 -0.033  0.029 -0.055  0.120
     ------------------------ ATOM    7 ------------------------
     Tr[ns(  7)] (up, down, total) =   1.39315  0.50474  1.89789
     Atomic magnetic moment for atom   7 =   0.88840
     SPIN  1
     eigenvalues:
       0.197  0.203  0.224  0.382  0.387
     eigenvectors (columns):
      -0.087 -0.526 -0.160 -0.822  0.117
       0.460 -0.564 -0.055  0.231 -0.643
      -0.250 -0.399  0.860  0.134  0.145
       0.540  0.454  0.479 -0.473 -0.222
       0.653 -0.201 -0.049  0.170  0.709
     occupation matrix ns (before diag.):
       0.327 -0.047 -0.020  0.063 -0.009
      -0.047  0.287 -0.012  0.005 -0.078
      -0.020 -0.012  0.225 -0.008  0.023
       0.063  0.005 -0.008  0.255 -0.046
      -0.009 -0.078  0.023 -0.046  0.298
     SPIN  2
     eigenvalues:
       0.041  0.042  0.049  0.184  0.188
     eigenvectors (columns):
      -0.379 -0.459 -0.199 -0.762  0.159
      -0.299 -0.664 -0.042  0.452 -0.514
      -0.482  0.007  0.830  0.075  0.269
       0.595 -0.233  0.519 -0.380 -0.422
       0.425 -0.543  0.008  0.255  0.678
     occupation matrix ns (before diag.):
       0.129 -0.061 -0.003  0.031 -0.012
      -0.061  0.110 -0.016  0.007 -0.034
      -0.003 -0.016  0.058 -0.017  0.030
       0.031  0.007 -0.017  0.090 -0.056
      -0.012 -0.034  0.030 -0.056  0.118

     Number of occupied Hubbard levels =    9.7216

     negative rho (up, down):  9.209E-04 5.483E-03

     HUBBARD ENERGY =    1.2648  (Ry)

     total cpu time spent up to now is      399.1 secs

     total energy              =   -1055.87216986 Ry
     estimated scf accuracy    <       3.50264901 Ry

     total magnetization       =     1.95 Bohr mag/cell
     absolute magnetization    =     6.95 Bohr mag/cell
[tb_dev] Currently allocated     0.00E+00 Mbytes, locked:    0 /   0
[tb_pin] Currently allocated     0.00E+00 Mbytes, locked:    0 /   0

     iteration #  3     ecut=    60.00 Ry     beta= 0.70
     CG style diagonalization

---- Real-time Memory Report at c_bands before calling an iterative solver
         12370 MiB given to the printing process from OS
             0 MiB allocation reported by mallinfo(arena+hblkhd)
        415192 MiB available memory on the node where the printing process lives
     GPU memory used/free/total (MiB): 3450 / 61494 / 64944
------------------
     ethr =  2.54E-03,  avg # of iterations =  3.5

     =================== HUBBARD OCCUPATIONS ===================
     ------------------------ ATOM    3 ------------------------
     Tr[ns(  3)] (up, down, total) =   3.00739  1.00435  4.01174
     Atomic magnetic moment for atom   3 =   2.00304
     SPIN  1
     eigenvalues:
       0.440  0.444  0.663  0.719  0.741
     eigenvectors (columns):
      -0.173 -0.681  0.239 -0.611  0.276
       0.425  0.593  0.113 -0.590  0.327
      -0.304  0.044 -0.769 -0.011  0.560
       0.546 -0.290 -0.571 -0.268 -0.469
      -0.631  0.314 -0.113 -0.456 -0.532
     occupation matrix ns (before diag.):
       0.582  0.132  0.007 -0.023  0.027
       0.132  0.574  0.038 -0.017  0.021
       0.007  0.038  0.667  0.020 -0.069
      -0.023 -0.017  0.020  0.599  0.123
       0.027  0.021 -0.069  0.123  0.586
     SPIN  2
     eigenvalues:
       0.123  0.151  0.154  0.287  0.289
     eigenvectors (columns):
       0.161 -0.575  0.347  0.231 -0.685
       0.008 -0.571  0.431 -0.006  0.698
      -0.860  0.068  0.375 -0.294 -0.168
      -0.484 -0.327 -0.549  0.592  0.082
       0.004 -0.481 -0.501 -0.714 -0.090
     occupation matrix ns (before diag.):
       0.223 -0.066  0.011  0.012 -0.015
      -0.066  0.219 -0.015  0.007 -0.009
       0.011 -0.015  0.146 -0.038  0.030
       0.012  0.007 -0.038  0.194 -0.058
      -0.015 -0.009  0.030 -0.058  0.222
     ------------------------ ATOM    4 ------------------------
     Tr[ns(  4)] (up, down, total) =   2.10765  0.86132  2.96898
     Atomic magnetic moment for atom   4 =   1.24633
     SPIN  1
     eigenvalues:
       0.318  0.398  0.406  0.488  0.497
     eigenvectors (columns):
      -0.159 -0.414  0.379 -0.380  0.718
       0.014  0.683 -0.166  0.301  0.645
       0.846 -0.078  0.448  0.274  0.051
       0.508 -0.050 -0.646 -0.552  0.132
       0.026  0.594  0.460 -0.621 -0.223
     occupation matrix ns (before diag.):
       0.461  0.035  0.006  0.033  0.007
       0.035  0.448  0.009 -0.006 -0.032
       0.006  0.009  0.349 -0.050 -0.016
       0.033 -0.006 -0.050  0.410  0.024
       0.007 -0.032 -0.016  0.024  0.439
     SPIN  2
     eigenvalues:
       0.098  0.116  0.118  0.262  0.267
     eigenvectors (columns):
       0.140 -0.503  0.450 -0.692  0.215
      -0.020 -0.509  0.495  0.553 -0.435
      -0.865  0.147  0.350  0.047  0.326
      -0.482 -0.378 -0.510 -0.315 -0.516
      -0.008 -0.569 -0.413  0.337  0.626
     occupation matrix ns (before diag.):
       0.193 -0.070  0.008  0.016 -0.014
      -0.070  0.190 -0.018  0.008 -0.014
       0.008 -0.018  0.119 -0.036  0.033
       0.016  0.008 -0.036  0.167 -0.064
      -0.014 -0.014  0.033 -0.064  0.192
     ------------------------ ATOM    5 ------------------------
     Tr[ns(  5)] (up, down, total) =   1.53274  0.71531  2.24804
     Atomic magnetic moment for atom   5 =   0.81743
     SPIN  1
     eigenvalues:
       0.190  0.253  0.272  0.404  0.414
     eigenvectors (columns):
      -0.024 -0.461  0.270  0.843  0.057
       0.083 -0.175  0.732 -0.288 -0.587
       0.933 -0.281 -0.077 -0.114  0.176
       0.347  0.780  0.088  0.428 -0.283
      -0.021  0.264  0.615 -0.103  0.736
     occupation matrix ns (before diag.):
       0.362 -0.038 -0.012  0.053 -0.003
      -0.038  0.331 -0.018  0.008 -0.056
      -0.012 -0.018  0.205 -0.036  0.023
       0.053  0.008 -0.036  0.286 -0.039
      -0.003 -0.056  0.023 -0.039  0.349
     SPIN  2
     eigenvalues:
       0.075  0.085  0.088  0.232  0.236
     eigenvectors (columns):
       0.138 -0.389  0.533  0.414 -0.612
      -0.010 -0.426  0.582 -0.575  0.386
      -0.874 -0.344 -0.076  0.297  0.156
      -0.465  0.575  0.328 -0.384 -0.445
       0.036  0.467  0.513  0.512  0.505
     occupation matrix ns (before diag.):
       0.167 -0.070  0.005  0.019 -0.015
      -0.070  0.157 -0.016  0.007 -0.013
       0.005 -0.016  0.094 -0.031  0.035
       0.019  0.007 -0.031  0.135 -0.062
      -0.015 -0.013  0.035 -0.062  0.163
     ------------------------ ATOM    6 ------------------------
     Tr[ns(  6)] (up, down, total) =   1.53090  0.71486  2.24576
     Atomic magnetic moment for atom   6 =   0.81603
     SPIN  1
     eigenvalues:
       0.189  0.252  0.272  0.404  0.414
     eigenvectors (columns):
      -0.026 -0.462  0.269  0.843  0.059
       0.082 -0.178  0.731 -0.288 -0.587
       0.933 -0.282 -0.077 -0.114  0.176
       0.349  0.779  0.092  0.428 -0.284
      -0.021  0.263  0.616 -0.105  0.735
     occupation matrix ns (before diag.):
       0.362 -0.038 -0.012  0.053 -0.003
      -0.038  0.330 -0.018  0.008 -0.056
      -0.012 -0.018  0.205 -0.036  0.023
       0.053  0.008 -0.036  0.285 -0.039
      -0.003 -0.056  0.023 -0.039  0.349
     SPIN  2
     eigenvalues:
       0.075  0.085  0.088  0.232  0.236
     eigenvectors (columns):
       0.138 -0.388  0.533  0.415 -0.611
      -0.010 -0.425  0.583 -0.576  0.385
      -0.874 -0.343 -0.076  0.297  0.156
      -0.465  0.576  0.327 -0.383 -0.445
       0.035  0.468  0.513  0.511  0.505
     occupation matrix ns (before diag.):
       0.167 -0.070  0.005  0.019 -0.015
      -0.070  0.157 -0.016  0.007 -0.013
       0.005 -0.016  0.094 -0.031  0.034
       0.019  0.007 -0.031  0.134 -0.062
      -0.015 -0.013  0.034 -0.062  0.163
     ------------------------ ATOM    7 ------------------------
     Tr[ns(  7)] (up, down, total) =   2.10883  0.86159  2.97042
     Atomic magnetic moment for atom   7 =   1.24723
     SPIN  1
     eigenvalues:
       0.319  0.398  0.407  0.488  0.497
     eigenvectors (columns):
       0.159  0.410  0.384 -0.375 -0.720
      -0.015 -0.683 -0.175  0.302 -0.642
      -0.845  0.072  0.449  0.276 -0.050
      -0.509  0.060 -0.644 -0.551 -0.136
      -0.027 -0.598  0.453 -0.623  0.220
     occupation matrix ns (before diag.):
       0.461  0.035  0.006  0.033  0.007
       0.035  0.447  0.009 -0.006 -0.032
       0.006  0.009  0.350 -0.050 -0.017
       0.033 -0.006 -0.050  0.410  0.024
       0.007 -0.032 -0.017  0.024  0.440
     SPIN  2
     eigenvalues:
       0.098  0.116  0.118  0.262  0.267
     eigenvectors (columns):
       0.140 -0.500  0.453 -0.692  0.215
      -0.019 -0.507  0.498  0.553 -0.435
      -0.865  0.148  0.349  0.047  0.326
      -0.482 -0.381 -0.507 -0.315 -0.516
      -0.008 -0.571 -0.410  0.337  0.626
     occupation matrix ns (before diag.):
       0.193 -0.070  0.008  0.016 -0.014
      -0.070  0.190 -0.018  0.008 -0.014
       0.008 -0.018  0.119 -0.036  0.033
       0.016  0.008 -0.036  0.167 -0.064
      -0.014 -0.014  0.033 -0.064  0.192

     Number of occupied Hubbard levels =   14.4449

     negative rho (up, down):  6.786E-04 5.090E-03

     HUBBARD ENERGY =    1.3425  (Ry)

     total cpu time spent up to now is      569.0 secs

     total energy              =   -1057.26970864 Ry
     estimated scf accuracy    <       3.74022129 Ry

     total magnetization       =     3.38 Bohr mag/cell
     absolute magnetization    =     8.20 Bohr mag/cell
[tb_dev] Currently allocated     0.00E+00 Mbytes, locked:    0 /   0
[tb_pin] Currently allocated     0.00E+00 Mbytes, locked:    0 /   0

     iteration #  4     ecut=    60.00 Ry     beta= 0.70
     CG style diagonalization

---- Real-time Memory Report at c_bands before calling an iterative solver
         12389 MiB given to the printing process from OS
             0 MiB allocation reported by mallinfo(arena+hblkhd)
        418048 MiB available memory on the node where the printing process lives
     GPU memory used/free/total (MiB): 3450 / 61494 / 64944
------------------
     ethr =  2.54E-03,  avg # of iterations =  3.2

     =================== HUBBARD OCCUPATIONS ===================
     ------------------------ ATOM    3 ------------------------
     Tr[ns(  3)] (up, down, total) =   0.90461  0.53891  1.44353
     Atomic magnetic moment for atom   3 =   0.36570
     SPIN  1
     eigenvalues:
       0.082  0.099  0.100  0.305  0.319
     eigenvectors (columns):
       0.140 -0.443 -0.403 -0.745  0.259
      -0.011 -0.670 -0.283  0.343 -0.594
      -0.879  0.046 -0.407  0.104  0.220
      -0.455 -0.210  0.671 -0.438 -0.327
       0.002 -0.555  0.376  0.354  0.652
     occupation matrix ns (before diag.):
       0.228 -0.087 -0.001  0.049 -0.017
      -0.087  0.201 -0.021  0.012 -0.061
      -0.001 -0.021  0.099 -0.032  0.039
       0.049  0.012 -0.032  0.159 -0.079
      -0.017 -0.061  0.039 -0.079  0.218
     SPIN  2
     eigenvalues:
       0.042  0.048  0.050  0.195  0.204
     eigenvectors (columns):
      -0.077 -0.319  0.565 -0.637  0.408
       0.090 -0.256  0.668  0.315 -0.617
       0.911 -0.270 -0.051  0.151  0.266
       0.390  0.700  0.142 -0.481 -0.325
      -0.055  0.519  0.459  0.491  0.525
     occupation matrix ns (before diag.):
       0.134 -0.068  0.003  0.025 -0.012
      -0.068  0.123 -0.019  0.009 -0.027
       0.003 -0.019  0.058 -0.026  0.033
       0.025  0.009 -0.026  0.097 -0.061
      -0.012 -0.027  0.033 -0.061  0.127
     ------------------------ ATOM    4 ------------------------
     Tr[ns(  4)] (up, down, total) =   1.33284  0.70213  2.03497
     Atomic magnetic moment for atom   4 =   0.63071
     SPIN  1
     eigenvalues:
       0.149  0.186  0.192  0.401  0.406
     eigenvectors (columns):
      -0.117  0.032  0.584 -0.787  0.158
       0.041 -0.331  0.640  0.334 -0.606
       0.874  0.334  0.256  0.117  0.212
       0.469 -0.576 -0.391 -0.446 -0.311
       0.007 -0.668  0.175  0.240  0.682
     occupation matrix ns (before diag.):
       0.326 -0.075 -0.008  0.065 -0.016
      -0.075  0.293 -0.020  0.007 -0.073
      -0.008 -0.020  0.171 -0.042  0.038
       0.065  0.007 -0.042  0.243 -0.070
      -0.016 -0.073  0.038 -0.070  0.300
     SPIN  2
     eigenvalues:
       0.063  0.071  0.074  0.246  0.249
     eigenvectors (columns):
       0.108  0.434  0.476 -0.748  0.120
      -0.046  0.400  0.601  0.538 -0.434
      -0.906  0.287 -0.075  0.037  0.301
      -0.403 -0.633  0.309 -0.308 -0.496
       0.059 -0.411  0.558  0.234  0.679
     occupation matrix ns (before diag.):
       0.172 -0.079  0.002  0.030 -0.015
      -0.079  0.156 -0.020  0.010 -0.030
       0.002 -0.020  0.081 -0.032  0.038
       0.030  0.010 -0.032  0.130 -0.072
      -0.015 -0.030  0.038 -0.072  0.164
     ------------------------ ATOM    5 ------------------------
     Tr[ns(  5)] (up, down, total) =   2.10796  0.77713  2.88509
     Atomic magnetic moment for atom   5 =   1.33083
     SPIN  1
     eigenvalues:
       0.338  0.377  0.386  0.485  0.522
     eigenvectors (columns):
      -0.141  0.591  0.064  0.178  0.771
      -0.195 -0.682 -0.243  0.540  0.383
      -0.970  0.043  0.036 -0.154 -0.178
       0.015 -0.415  0.674 -0.482  0.376
       0.019 -0.107 -0.694 -0.649  0.293
     occupation matrix ns (before diag.):
       0.466  0.052 -0.028  0.033  0.020
       0.052  0.429 -0.026 -0.008 -0.020
      -0.028 -0.026  0.348 -0.001  0.004
       0.033 -0.008 -0.001  0.426  0.046
       0.020 -0.020  0.004  0.046  0.439
     SPIN  2
     eigenvalues:
       0.081  0.093  0.098  0.249  0.256
     eigenvectors (columns):
       0.195  0.491  0.386  0.402 -0.641
       0.058  0.606  0.391 -0.599  0.343
      -0.807 -0.077  0.499  0.261  0.159
      -0.552  0.307 -0.519 -0.345 -0.461
      -0.043  0.539 -0.425  0.541  0.484
     occupation matrix ns (before diag.):
       0.185 -0.073  0.003  0.027 -0.017
      -0.073  0.169 -0.014  0.006 -0.025
       0.003 -0.014  0.101 -0.033  0.033
       0.027  0.006 -0.033  0.144 -0.065
      -0.017 -0.025  0.033 -0.065  0.178
     ------------------------ ATOM    6 ------------------------
     Tr[ns(  6)] (up, down, total) =   2.10861  0.77712  2.88573
     Atomic magnetic moment for atom   6 =   1.33149
     SPIN  1
     eigenvalues:
       0.339  0.377  0.386  0.484  0.522
     eigenvectors (columns):
      -0.143  0.591  0.070  0.183  0.769
      -0.192 -0.679 -0.251  0.543  0.380
      -0.971  0.036  0.042 -0.156 -0.175
       0.021 -0.422  0.671 -0.476  0.380
       0.017 -0.101 -0.693 -0.649  0.298
     occupation matrix ns (before diag.):
       0.466  0.052 -0.028  0.034  0.020
       0.052  0.429 -0.026 -0.008 -0.020
      -0.028 -0.026  0.349 -0.001  0.004
       0.034 -0.008 -0.001  0.426  0.046
       0.020 -0.020  0.004  0.046  0.439
     SPIN  2
     eigenvalues:
       0.081  0.093  0.098  0.249  0.256
     eigenvectors (columns):
       0.195  0.491  0.386  0.402 -0.640
       0.058  0.606  0.391 -0.599  0.342
      -0.808 -0.076  0.499  0.260  0.160
      -0.552  0.307 -0.519 -0.345 -0.461
      -0.043  0.539 -0.425  0.541  0.484
     occupation matrix ns (before diag.):
       0.185 -0.073  0.003  0.027 -0.017
      -0.073  0.169 -0.014  0.006 -0.025
       0.003 -0.014  0.101 -0.033  0.033
       0.027  0.006 -0.033  0.144 -0.065
      -0.017 -0.025  0.033 -0.065  0.178
     ------------------------ ATOM    7 ------------------------
     Tr[ns(  7)] (up, down, total) =   1.33227  0.70204  2.03431
     Atomic magnetic moment for atom   7 =   0.63024
     SPIN  1
     eigenvalues:
       0.149  0.186  0.191  0.401  0.405
     eigenvectors (columns):
      -0.117  0.030  0.584 -0.785  0.166
       0.042 -0.333  0.639  0.329 -0.609
       0.874  0.335  0.257  0.119  0.211
       0.471 -0.574 -0.392 -0.448 -0.308
       0.008 -0.669  0.173  0.246  0.680
     occupation matrix ns (before diag.):
       0.326 -0.075 -0.008  0.065 -0.016
      -0.075  0.293 -0.020  0.007 -0.073
      -0.008 -0.020  0.171 -0.042  0.038
       0.065  0.007 -0.042  0.242 -0.070
      -0.016 -0.073  0.038 -0.070  0.300
     SPIN  2
     eigenvalues:
       0.063  0.071  0.074  0.246  0.249
     eigenvectors (columns):
       0.108  0.433  0.477 -0.748  0.121
      -0.046  0.398  0.602  0.537 -0.434
      -0.906  0.287 -0.074  0.037  0.301
      -0.403 -0.634  0.308 -0.309 -0.495
       0.059 -0.412  0.558  0.235  0.679
     occupation matrix ns (before diag.):
       0.172 -0.079  0.002  0.030 -0.015
      -0.079  0.156 -0.020  0.010 -0.030
       0.002 -0.020  0.081 -0.032  0.038
       0.030  0.010 -0.032  0.130 -0.072
      -0.015 -0.030  0.038 -0.072  0.163

     Number of occupied Hubbard levels =   11.2836

     negative rho (up, down):  5.226E-04 4.847E-03

     HUBBARD ENERGY =    1.3843  (Ry)

     total cpu time spent up to now is      723.3 secs

     total energy              =   -1058.48729943 Ry
     estimated scf accuracy    <       1.40335932 Ry

     total magnetization       =     1.99 Bohr mag/cell
     absolute magnetization    =     6.24 Bohr mag/cell
[tb_dev] Currently allocated     0.00E+00 Mbytes, locked:    0 /   0
[tb_pin] Currently allocated     0.00E+00 Mbytes, locked:    0 /   0

     iteration #  5     ecut=    60.00 Ry     beta= 0.70
     CG style diagonalization

---- Real-time Memory Report at c_bands before calling an iterative solver
         12404 MiB given to the printing process from OS
             0 MiB allocation reported by mallinfo(arena+hblkhd)
        418020 MiB available memory on the node where the printing process lives
     GPU memory used/free/total (MiB): 3450 / 61494 / 64944
------------------
     ethr =  1.02E-03,  avg # of iterations =  3.3

     =================== HUBBARD OCCUPATIONS ===================
     ------------------------ ATOM    3 ------------------------
     Tr[ns(  3)] (up, down, total) =   1.40369  0.61437  2.01806
     Atomic magnetic moment for atom   3 =   0.78932
     SPIN  1
     eigenvalues:
       0.210  0.239  0.249  0.342  0.364
     eigenvectors (columns):
      -0.217  0.363 -0.250  0.047 -0.870
      -0.166  0.494  0.612  0.586  0.103
      -0.915 -0.243  0.184 -0.257  0.060
       0.206 -0.666  0.518  0.161 -0.469
       0.214  0.349  0.510 -0.750 -0.095
     occupation matrix ns (before diag.):
       0.333 -0.011 -0.014  0.052  0.007
      -0.011  0.279 -0.018  0.008 -0.042
      -0.014 -0.018  0.222 -0.001  0.026
       0.052  0.008 -0.001  0.271 -0.005
       0.007 -0.042  0.026 -0.005  0.299
     SPIN  2
     eigenvalues:
       0.057  0.064  0.065  0.210  0.218
     eigenvectors (columns):
       0.146 -0.397 -0.495 -0.632  0.419
      -0.014 -0.520 -0.499  0.300 -0.625
      -0.858  0.177 -0.381  0.155  0.251
      -0.492 -0.389  0.520 -0.486 -0.315
      -0.019 -0.624  0.298  0.500  0.521
     occupation matrix ns (before diag.):
       0.150 -0.068  0.003  0.025 -0.013
      -0.068  0.138 -0.017  0.009 -0.028
       0.003 -0.017  0.072 -0.026  0.031
       0.025  0.009 -0.026  0.112 -0.061
      -0.013 -0.028  0.031 -0.061  0.142
     ------------------------ ATOM    4 ------------------------
     Tr[ns(  4)] (up, down, total) =   1.55838  0.68044  2.23882
     Atomic magnetic moment for atom   4 =   0.87794
     SPIN  1
     eigenvalues:
       0.219  0.267  0.283  0.390  0.399
     eigenvectors (columns):
       0.169  0.104 -0.478  0.821 -0.240
       0.006 -0.624 -0.333 -0.303 -0.639
      -0.842  0.226 -0.472 -0.110  0.070
      -0.512 -0.325  0.621  0.444 -0.221
      -0.015 -0.665 -0.227  0.158  0.693
     occupation matrix ns (before diag.):
       0.360 -0.008 -0.003  0.051 -0.004
      -0.008  0.334  0.001 -0.001 -0.063
      -0.003  0.001  0.238 -0.034  0.005
       0.051 -0.001 -0.034  0.291 -0.014
      -0.004 -0.063  0.005 -0.014  0.335
     SPIN  2
     eigenvalues:
       0.061  0.068  0.068  0.240  0.244
     eigenvectors (columns):
       0.118 -0.434 -0.473 -0.742  0.153
      -0.043 -0.411 -0.593  0.517 -0.459
      -0.872 -0.364  0.132  0.051  0.295
      -0.473  0.591 -0.294 -0.332 -0.480
      -0.011  0.401 -0.567  0.263  0.670
     occupation matrix ns (before diag.):
       0.167 -0.078  0.002  0.030 -0.015
      -0.078  0.151 -0.020  0.009 -0.031
       0.002 -0.020  0.078 -0.031  0.037
       0.030  0.009 -0.031  0.126 -0.071
      -0.015 -0.031  0.037 -0.071  0.159
     ------------------------ ATOM    5 ------------------------
     Tr[ns(  5)] (up, down, total) =   1.00659  0.55909  1.56568
     Atomic magnetic moment for atom   5 =   0.44750
     SPIN  1
     eigenvalues:
       0.117  0.136  0.140  0.305  0.309
     eigenvectors (columns):
       0.069  0.138 -0.552 -0.819 -0.042
       0.221 -0.260 -0.659  0.445 -0.501
       0.924  0.289  0.068  0.069  0.229
       0.303 -0.681  0.420 -0.353 -0.379
       0.023 -0.605 -0.283  0.052  0.742
     occupation matrix ns (before diag.):
       0.250 -0.057 -0.013  0.050 -0.012
      -0.057  0.214 -0.019  0.004 -0.060
      -0.013 -0.019  0.130 -0.024  0.030
       0.050  0.004 -0.024  0.181 -0.052
      -0.012 -0.060  0.030 -0.052  0.232
     SPIN  2
     eigenvalues:
       0.046  0.050  0.051  0.206  0.207
     eigenvectors (columns):
       0.193 -0.435  0.439 -0.419  0.637
       0.055 -0.430  0.584  0.613 -0.309
      -0.846 -0.432 -0.058 -0.257 -0.168
      -0.493  0.544  0.368  0.316  0.476
       0.028  0.379  0.573 -0.532 -0.494
     occupation matrix ns (before diag.):
       0.141 -0.071  0.001  0.028 -0.015
      -0.071  0.124 -0.016  0.007 -0.026
       0.001 -0.016  0.062 -0.027  0.035
       0.028  0.007 -0.027  0.100 -0.063
      -0.015 -0.026  0.035 -0.063  0.133
     ------------------------ ATOM    6 ------------------------
     Tr[ns(  6)] (up, down, total) =   1.00672  0.55913  1.56586
     Atomic magnetic moment for atom   6 =   0.44759
     SPIN  1
     eigenvalues:
       0.118  0.136  0.139  0.305  0.309
     eigenvectors (columns):
       0.067  0.159 -0.546 -0.819 -0.040
       0.218 -0.234 -0.670  0.443 -0.502
       0.925  0.287  0.075  0.070  0.228
       0.305 -0.696  0.393 -0.354 -0.379
       0.022 -0.594 -0.305  0.054  0.742
     occupation matrix ns (before diag.):
       0.250 -0.057 -0.012  0.050 -0.012
      -0.057  0.214 -0.019  0.004 -0.060
      -0.012 -0.019  0.130 -0.024  0.030
       0.050  0.004 -0.024  0.181 -0.053
      -0.012 -0.060  0.030 -0.053  0.232
     SPIN  2
     eigenvalues:
       0.046  0.050  0.051  0.206  0.207
     eigenvectors (columns):
       0.192 -0.435  0.440 -0.417  0.638
       0.054 -0.430  0.584  0.612 -0.311
[...]
      -0.102  0.197 -0.021  0.009 -0.040
       0.004 -0.021  0.098 -0.041  0.044
       0.040  0.009 -0.041  0.164 -0.091
      -0.022 -0.040  0.044 -0.091  0.208

     Number of occupied Hubbard levels =   10.9617

     negative rho (up, down):  9.085E-04 3.356E-03

     HUBBARD ENERGY =    1.3396  (Ry)

     total cpu time spent up to now is    46565.3 secs

     total energy              =   -1058.98009919 Ry
     estimated scf accuracy    <       0.00051179 Ry

     total magnetization       =     2.00 Bohr mag/cell
     absolute magnetization    =     3.23 Bohr mag/cell
[tb_dev] Currently allocated     0.00E+00 Mbytes, locked:    0 /   0
[tb_pin] Currently allocated     0.00E+00 Mbytes, locked:    0 /   0

     iteration #299     ecut=    60.00 Ry     beta= 0.70
     CG style diagonalization

---- Real-time Memory Report at c_bands before calling an iterative solver
         12488 MiB given to the printing process from OS
             0 MiB allocation reported by mallinfo(arena+hblkhd)
        383520 MiB available memory on the node where the printing process lives
     GPU memory used/free/total (MiB): 3450 / 61494 / 64944
------------------
     ethr =  8.94E-08,  avg # of iterations =  3.0

     =================== HUBBARD OCCUPATIONS ===================
     ------------------------ ATOM    3 ------------------------
     Tr[ns(  3)] (up, down, total) =   1.23044  0.93179  2.16223
     Atomic magnetic moment for atom   3 =   0.29865
     SPIN  1
     eigenvalues:
       0.115  0.179  0.204  0.350  0.382
     eigenvectors (columns):
      -0.247  0.119 -0.386  0.299 -0.829
      -0.311 -0.275 -0.660 -0.610  0.140
      -0.852 -0.275  0.289  0.287  0.183
       0.188 -0.752  0.376 -0.263 -0.434
       0.286 -0.519 -0.436  0.622  0.268
     occupation matrix ns (before diag.):
       0.334 -0.053 -0.032  0.059 -0.005
      -0.053  0.251 -0.046  0.013 -0.044
      -0.032 -0.046  0.156 -0.016  0.053
       0.059  0.013 -0.016  0.231 -0.059
      -0.005 -0.044  0.053 -0.059  0.259
     SPIN  2
     eigenvalues:
       0.079  0.097  0.100  0.326  0.329
     eigenvectors (columns):
       0.180  0.506  0.368  0.129  0.748
       0.020  0.641  0.329  0.257 -0.644
      -0.854 -0.026  0.435 -0.280  0.057
      -0.489  0.254 -0.607  0.554  0.149
      -0.004  0.518 -0.447 -0.730 -0.003
     occupation matrix ns (before diag.):
       0.231 -0.104  0.005  0.043 -0.023
      -0.104  0.209 -0.024  0.010 -0.043
       0.005 -0.024  0.103 -0.042  0.046
       0.043  0.010 -0.042  0.169 -0.092
      -0.023 -0.043  0.046 -0.092  0.219
     ------------------------ ATOM    4 ------------------------
     Tr[ns(  4)] (up, down, total) =   1.31294  0.86566  2.17860
     Atomic magnetic moment for atom   4 =   0.44728
     SPIN  1
     eigenvalues:
       0.102  0.179  0.262  0.341  0.428
     eigenvectors (columns):
      -0.220 -0.197 -0.134  0.456 -0.829
      -0.284  0.267 -0.575 -0.669 -0.263
      -0.872  0.258  0.102  0.267  0.301
       0.141  0.754  0.533 -0.081 -0.347
       0.300  0.505 -0.597  0.516  0.180
     occupation matrix ns (before diag.):
       0.382  0.006 -0.058  0.062  0.013
       0.006  0.290 -0.073  0.009 -0.033
      -0.058 -0.073  0.155 -0.015  0.051
       0.062  0.009 -0.015  0.232 -0.052
       0.013 -0.033  0.051 -0.052  0.253
     SPIN  2
     eigenvalues:
       0.074  0.085  0.092  0.306  0.310
     eigenvectors (columns):
       0.226  0.570  0.255  0.683 -0.304
       0.082  0.685  0.186 -0.697 -0.064
      -0.839  0.125  0.448  0.120  0.255
      -0.488  0.168 -0.626 -0.006 -0.585
       0.004  0.403 -0.555  0.183  0.704
     occupation matrix ns (before diag.):
       0.209 -0.101  0.004  0.039 -0.021
      -0.101  0.193 -0.021  0.009 -0.039
       0.004 -0.021  0.096 -0.040  0.044
       0.039  0.009 -0.040  0.162 -0.090
      -0.021 -0.039  0.044 -0.090  0.206
     ------------------------ ATOM    5 ------------------------
     Tr[ns(  5)] (up, down, total) =   1.54120  0.71222  2.25342
     Atomic magnetic moment for atom   5 =   0.82898
     SPIN  1
     eigenvalues:
       0.083  0.251  0.269  0.421  0.516
     eigenvectors (columns):
       0.136  0.397  0.295 -0.429 -0.743
       0.246 -0.739 -0.215  0.203 -0.553
       0.934  0.025  0.209 -0.035  0.287
       0.096 -0.041 -0.703 -0.693  0.117
      -0.199 -0.541  0.573 -0.541  0.214
     occupation matrix ns (before diag.):
       0.427  0.087 -0.074  0.022  0.005
       0.087  0.330 -0.083 -0.042 -0.044
      -0.074 -0.083  0.128 -0.005  0.053
       0.022 -0.042 -0.005  0.344  0.067
       0.005 -0.044  0.053  0.067  0.312
     SPIN  2
     eigenvalues:
       0.060  0.067  0.071  0.253  0.262
     eigenvectors (columns):
       0.348  0.467  0.304  0.419 -0.627
       0.226  0.604  0.324 -0.612  0.324
      -0.678  0.061  0.669  0.250  0.162
      -0.604  0.372 -0.410 -0.324 -0.473
      -0.062  0.524 -0.432  0.532  0.502
     occupation matrix ns (before diag.):
       0.176 -0.087  0.002  0.033 -0.020
      -0.087  0.157 -0.016  0.007 -0.029
       0.002 -0.016  0.082 -0.034  0.039
       0.033  0.007 -0.034  0.128 -0.078
      -0.020 -0.029  0.039 -0.078  0.169
     ------------------------ ATOM    6 ------------------------
     Tr[ns(  6)] (up, down, total) =   1.40739  0.79121  2.19859
     Atomic magnetic moment for atom   6 =   0.61618
     SPIN  1
     eigenvalues:
       0.095  0.224  0.280  0.352  0.457
     eigenvectors (columns):
       0.177  0.226 -0.204  0.454 -0.819
       0.247 -0.625 -0.126 -0.597 -0.419
       0.898 -0.110 -0.054  0.268  0.326
      -0.087 -0.486  0.764  0.398 -0.123
      -0.306 -0.557 -0.597  0.455  0.181
     occupation matrix ns (before diag.):
       0.404  0.041 -0.067  0.040  0.006
       0.041  0.304 -0.080 -0.021 -0.038
      -0.067 -0.080  0.154  0.012  0.067
       0.040 -0.021  0.012  0.279 -0.011
       0.006 -0.038  0.067 -0.011  0.266
     SPIN  2
     eigenvalues:
       0.066  0.076  0.082  0.280  0.288
     eigenvectors (columns):
       0.296  0.542  0.235  0.471 -0.585
       0.170  0.670  0.200 -0.640  0.271
      -0.761  0.174  0.553  0.229  0.182
      -0.552  0.243 -0.556 -0.277 -0.500
      -0.019  0.411 -0.538  0.489  0.549
     occupation matrix ns (before diag.):
       0.193 -0.095  0.002  0.036 -0.022
      -0.095  0.175 -0.017  0.008 -0.033
       0.002 -0.017  0.090 -0.038  0.042
       0.036  0.008 -0.038  0.143 -0.084
      -0.022 -0.033  0.042 -0.084  0.190
     ------------------------ ATOM    7 ------------------------
     Tr[ns(  7)] (up, down, total) =   1.28476  0.87951  2.16427
     Atomic magnetic moment for atom   7 =   0.40525
     SPIN  1
     eigenvalues:
       0.107  0.176  0.250  0.341  0.410
     eigenvectors (columns):
       0.238 -0.217  0.169 -0.415 -0.834
       0.296  0.178  0.653  0.656 -0.155
       0.872  0.276 -0.145 -0.258  0.275
      -0.138  0.784 -0.414  0.165 -0.410
      -0.276  0.480  0.594 -0.551  0.191
     occupation matrix ns (before diag.):
       0.366 -0.011 -0.052  0.066  0.013
      -0.011  0.278 -0.063  0.016 -0.032
      -0.052 -0.063  0.154 -0.021  0.046
       0.066  0.016 -0.021  0.231 -0.054
       0.013 -0.032  0.046 -0.054  0.256
     SPIN  2
     eigenvalues:
       0.075  0.087  0.093  0.311  0.313
     eigenvectors (columns):
       0.211  0.553  0.295  0.639 -0.392
       0.063  0.673  0.234 -0.698  0.021
      -0.841  0.071  0.455  0.153  0.240
      -0.495  0.196 -0.613 -0.078 -0.579
      -0.005  0.444 -0.525  0.272  0.673
     occupation matrix ns (before diag.):
       0.213 -0.102  0.004  0.040 -0.022
      -0.102  0.197 -0.021  0.009 -0.040
       0.004 -0.021  0.098 -0.041  0.044
       0.040  0.009 -0.041  0.164 -0.091
      -0.022 -0.040  0.044 -0.091  0.208

     Number of occupied Hubbard levels =   10.9571

     negative rho (up, down):  9.105E-04 3.356E-03

     HUBBARD ENERGY =    1.3402  (Ry)

     total cpu time spent up to now is    46709.0 secs

     total energy              =   -1058.97961530 Ry
     estimated scf accuracy    <       0.00048745 Ry

     total magnetization       =     2.00 Bohr mag/cell
     absolute magnetization    =     3.23 Bohr mag/cell
[tb_dev] Currently allocated     0.00E+00 Mbytes, locked:    0 /   0
[tb_pin] Currently allocated     0.00E+00 Mbytes, locked:    0 /   0

     iteration #300     ecut=    60.00 Ry     beta= 0.70
     CG style diagonalization

---- Real-time Memory Report at c_bands before calling an iterative solver
         12488 MiB given to the printing process from OS
             0 MiB allocation reported by mallinfo(arena+hblkhd)
        383505 MiB available memory on the node where the printing process lives
     GPU memory used/free/total (MiB): 3450 / 61494 / 64944
------------------
     ethr =  8.94E-08,  avg # of iterations =  3.6

     =================== HUBBARD OCCUPATIONS ===================
     ------------------------ ATOM    3 ------------------------
     Tr[ns(  3)] (up, down, total) =   1.22753  0.92899  2.15653
     Atomic magnetic moment for atom   3 =   0.29854
     SPIN  1
     eigenvalues:
       0.114  0.177  0.205  0.349  0.382
     eigenvectors (columns):
      -0.245  0.113 -0.384  0.298 -0.831
      -0.312 -0.281 -0.657 -0.611  0.138
      -0.856 -0.259  0.289  0.287  0.186
       0.177 -0.750  0.392 -0.263 -0.429
       0.281 -0.529 -0.429  0.621  0.267
     occupation matrix ns (before diag.):
       0.334 -0.053 -0.033  0.058 -0.005
      -0.053  0.251 -0.047  0.012 -0.044
      -0.033 -0.047  0.155 -0.017  0.052
       0.058  0.012 -0.017  0.229 -0.059
      -0.005 -0.044  0.052 -0.059  0.258
     SPIN  2
     eigenvalues:
       0.079  0.096  0.100  0.325  0.329
     eigenvectors (columns):
       0.181  0.504  0.369  0.121  0.750
       0.021  0.641  0.330  0.263 -0.641
      -0.853 -0.027  0.436 -0.281  0.054
      -0.490  0.256 -0.605  0.552  0.155
      -0.005  0.519 -0.445 -0.730 -0.011
     occupation matrix ns (before diag.):
       0.230 -0.104  0.005  0.043 -0.023
      -0.104  0.208 -0.024  0.010 -0.043
       0.005 -0.024  0.103 -0.042  0.046
       0.043  0.010 -0.042  0.169 -0.091
      -0.023 -0.043  0.046 -0.091  0.219
     ------------------------ ATOM    4 ------------------------
     Tr[ns(  4)] (up, down, total) =   1.31518  0.86693  2.18211
     Atomic magnetic moment for atom   4 =   0.44825
     SPIN  1
     eigenvalues:
       0.102  0.179  0.263  0.342  0.429
     eigenvectors (columns):
      -0.221 -0.192 -0.134  0.455 -0.830
      -0.284  0.277 -0.569 -0.670 -0.263
      -0.870  0.262  0.105  0.269  0.302
       0.148  0.748  0.543 -0.079 -0.343
       0.303  0.508 -0.593  0.515  0.180
     occupation matrix ns (before diag.):
       0.383  0.007 -0.059  0.062  0.013
       0.007  0.290 -0.073  0.008 -0.033
      -0.059 -0.073  0.156 -0.015  0.051
       0.062  0.008 -0.015  0.233 -0.053
       0.013 -0.033  0.051 -0.053  0.253
     SPIN  2
     eigenvalues:
       0.074  0.085  0.092  0.306  0.310
     eigenvectors (columns):
       0.224  0.572  0.253  0.684 -0.302
       0.079  0.686  0.185 -0.697 -0.066
      -0.840  0.122  0.448  0.120  0.255
      -0.489  0.164 -0.626 -0.004 -0.585
       0.002  0.401 -0.556  0.181  0.705
     occupation matrix ns (before diag.):
       0.209 -0.101  0.004  0.039 -0.021
      -0.101  0.194 -0.021  0.009 -0.039
       0.004 -0.021  0.096 -0.040  0.044
       0.039  0.009 -0.040  0.162 -0.090
      -0.021 -0.039  0.044 -0.090  0.206
     ------------------------ ATOM    5 ------------------------
     Tr[ns(  5)] (up, down, total) =   1.53818  0.70947  2.24765
     Atomic magnetic moment for atom   5 =   0.82870
     SPIN  1
     eigenvalues:
       0.083  0.254  0.266  0.430  0.505
     eigenvectors (columns):
      -0.136  0.420  0.310 -0.276  0.795
      -0.244 -0.739 -0.210  0.274  0.525
      -0.934  0.019  0.200 -0.091 -0.280
      -0.094 -0.003 -0.717 -0.690  0.025
       0.200 -0.527  0.553 -0.603 -0.113
     occupation matrix ns (before diag.):
       0.424  0.085 -0.072  0.034  0.014
       0.085  0.327 -0.081 -0.032 -0.037
      -0.072 -0.081  0.126 -0.008  0.051
       0.034 -0.032 -0.008  0.343  0.071
       0.014 -0.037  0.051  0.071  0.318
     SPIN  2
     eigenvalues:
       0.060  0.066  0.070  0.252  0.261
     eigenvectors (columns):
       0.344  0.461  0.319  0.415 -0.629
       0.223  0.595  0.341 -0.611  0.328
      -0.682  0.042  0.667  0.250  0.161
      -0.603  0.381 -0.404 -0.327 -0.471
      -0.062  0.535 -0.417  0.535  0.500
     occupation matrix ns (before diag.):
       0.175 -0.087  0.002  0.033 -0.020
      -0.087  0.157 -0.016  0.007 -0.029
       0.002 -0.016  0.082 -0.034  0.039
       0.033  0.007 -0.034  0.127 -0.078
      -0.020 -0.029  0.039 -0.078  0.169
     ------------------------ ATOM    6 ------------------------
     Tr[ns(  6)] (up, down, total) =   1.40841  0.78911  2.19752
     Atomic magnetic moment for atom   6 =   0.61930
     SPIN  1
     eigenvalues:
       0.095  0.232  0.277  0.361  0.444
     eigenvectors (columns):
       0.177  0.223 -0.270  0.407 -0.825
       0.247 -0.683 -0.055 -0.562 -0.392
       0.898 -0.088 -0.043  0.282  0.323
      -0.086 -0.378  0.788  0.453 -0.155
      -0.305 -0.577 -0.549  0.484  0.197
     occupation matrix ns (before diag.):
       0.396  0.034 -0.063  0.043  0.005
       0.034  0.297 -0.078 -0.019 -0.040
      -0.063 -0.078  0.153  0.015  0.070
       0.043 -0.019  0.015  0.291 -0.002
       0.005 -0.040  0.070 -0.002  0.271
     SPIN  2
     eigenvalues:
       0.066  0.076  0.081  0.279  0.287
     eigenvectors (columns):
       0.287  0.537  0.254  0.458 -0.596
       0.160  0.664  0.226 -0.634  0.284
      -0.760  0.138  0.563  0.233  0.177
      -0.560  0.255 -0.543 -0.289 -0.493
      -0.029  0.432 -0.522  0.501  0.538
     occupation matrix ns (before diag.):
       0.193 -0.095  0.002  0.036 -0.022
      -0.095  0.175 -0.018  0.008 -0.033
       0.002 -0.018  0.089 -0.038  0.042
       0.036  0.008 -0.038  0.143 -0.084
      -0.022 -0.033  0.042 -0.084  0.189
     ------------------------ ATOM    7 ------------------------
     Tr[ns(  7)] (up, down, total) =   1.28417  0.88184  2.16601
     Atomic magnetic moment for atom   7 =   0.40233
     SPIN  1
     eigenvalues:
       0.108  0.179  0.248  0.342  0.407
     eigenvectors (columns):
       0.234  0.212 -0.195 -0.409 -0.834
       0.292 -0.202 -0.650  0.658 -0.140
       0.873 -0.271  0.153 -0.262  0.269
      -0.140 -0.775  0.428  0.159 -0.415
      -0.280 -0.490 -0.577 -0.554  0.203
     occupation matrix ns (before diag.):
       0.364 -0.013 -0.050  0.065  0.011
      -0.013  0.277 -0.062  0.014 -0.034
      -0.050 -0.062  0.154 -0.019  0.048
       0.065  0.014 -0.019  0.234 -0.054
       0.011 -0.034  0.048 -0.054  0.256
     SPIN  2
     eigenvalues:
       0.075  0.087  0.094  0.312  0.314
     eigenvectors (columns):
       0.206  0.556  0.293  0.631 -0.406
       0.057  0.675  0.232 -0.697  0.036
      -0.841  0.065  0.456  0.158  0.236
      -0.498  0.189 -0.612 -0.091 -0.577
      -0.010  0.443 -0.526  0.287  0.667
     occupation matrix ns (before diag.):
       0.214 -0.102  0.004  0.040 -0.022
      -0.102  0.197 -0.022  0.009 -0.040
       0.004 -0.022  0.098 -0.041  0.044
       0.040  0.009 -0.041  0.164 -0.091
      -0.022 -0.040  0.044 -0.091  0.208

     Number of occupied Hubbard levels =   10.9498

     negative rho (up, down):  9.164E-04 3.357E-03

     HUBBARD ENERGY =    1.3403  (Ry)

     total cpu time spent up to now is    46885.4 secs

     total energy              =   -1058.97897215 Ry
     estimated scf accuracy    <       0.00041195 Ry

     total magnetization       =     2.00 Bohr mag/cell
     absolute magnetization    =     3.23 Bohr mag/cell

     End of self-consistent calculation

     convergence NOT achieved after 300 iterations: stopping

     Writing config to output data dir ./out/aiida.save/ :
     XML data file, charge density
 
     init_run     :     14.01s CPU     17.28s WALL (       1 calls)
     electrons    :  46119.27s CPU  46868.13s WALL (       1 calls)

     Called by init_run:
     wfcinit      :     11.79s CPU     14.80s WALL (       1 calls)
     wfcinit:atom :      0.52s CPU      0.52s WALL (     340 calls)
     wfcinit:wfcr :      5.86s CPU      5.90s WALL (     340 calls)
     potinit      :      0.28s CPU      0.36s WALL (       1 calls)
     hinit0       :      1.17s CPU      1.23s WALL (       1 calls)

     Called by electrons:
     c_bands      :  43603.67s CPU  44196.97s WALL (     300 calls)
     sum_band     :   2425.32s CPU   2578.68s WALL (     300 calls)
     v_of_rho     :      7.92s CPU      8.09s WALL (     301 calls)
     v_h          :      2.68s CPU      2.71s WALL (     301 calls)
     v_xc         :      5.23s CPU      5.36s WALL (     301 calls)
     newd         :     12.45s CPU     12.58s WALL (     301 calls)
     PAW_pot      :     22.66s CPU     22.93s WALL (     301 calls)
     mix_rho      :     20.65s CPU     20.84s WALL (     300 calls)

     Called by c_bands:
     init_us_2    :    129.86s CPU    130.73s WALL (  204680 calls)
     ccgdiagg     :  40940.60s CPU  41451.98s WALL (  102001 calls)
     wfcrot       :   1396.64s CPU   1439.77s WALL (  102001 calls)
                                     1439.45s GPU  (  102001 calls)

     Called by sum_band:
     sum_band:wei :      6.07s CPU      6.11s WALL (     300 calls)
     sum_band:loo :   1145.04s CPU   1148.89s WALL (     300 calls)
     sum_band:buf :    449.17s CPU    450.87s WALL (  102000 calls)
     sum_band:ini :     64.85s CPU     65.18s WALL (  102000 calls)
     sum_band:cal :      4.91s CPU      4.92s WALL (  102000 calls)
     sum_band:bec :     98.17s CPU     98.67s WALL (  102000 calls)
     addusdens    :     26.94s CPU     27.01s WALL (     300 calls)
                                       27.01s GPU  (     300 calls)
     addusd:skk   :      0.15s CPU      0.16s WALL (     900 calls)
                                        0.16s GPU  (     900 calls)

     Called by *cgdiagg:
     h_psi        :  17203.35s CPU  17511.21s WALL (18996668 calls)
     s_psi        :  16458.76s CPU  16631.81s WALL (37891675 calls)

     Called by h_psi:
     h_psi:calbec :    191.45s CPU    193.55s WALL (18996668 calls)
     vloc_psi     :   5824.20s CPU   6103.41s WALL (18996668 calls)
                                     5981.81s GPU  (18996668 calls)
     add_vuspsi   :   7268.70s CPU   7398.75s WALL (18996668 calls)
     vhpsi        :   3359.32s CPU   3423.36s WALL (18996668 calls)
     hs_1psi      :  23874.68s CPU  25721.61s WALL (18894667 calls)
                                    25602.38s GPU  (18894667 calls)
     s_1psi       :   9109.72s CPU  10647.98s WALL (18894667 calls)
                                    10529.61s GPU  (18894667 calls)

     General routines
     calbec       :   1255.50s CPU   1414.25s WALL (57092343 calls)
     fft          :     11.67s CPU     12.35s WALL (    7523 calls)
                                        0.66s GPU  (    6921 calls)
     ffts         :      3.90s CPU      3.94s WALL (    1202 calls)
                                        0.03s GPU  (     600 calls)
     fftw         :    311.53s CPU   2707.02s WALL (39626026 calls)
                                     2462.32s GPU  (39626026 calls)
     interpolate  :     17.72s CPU     17.80s WALL (     602 calls)
     davcio       :      0.05s CPU      5.73s WALL (     358 calls)
 
     Parallel routines

     Hubbard U routines
     new_ns       :   1242.69s CPU   1392.02s WALL (     300 calls)
     vhpsi        :   3359.32s CPU   3423.36s WALL (18996668 calls)

     PAW routines
     PAW_pot      :     22.66s CPU     22.93s WALL (     301 calls)
 
     PWSCF        :     12h48m CPU     13h 1m WALL

 
   This run was terminated on:  23:14:43  15Oct2025            

=------------------------------------------------------------------------------=
   JOB DONE.
=------------------------------------------------------------------------------=
