
     Program PWSCF v.7.4.1 starts on 14Oct2025 at 22:38:45 

     This program is part of the open-source Quantum ESPRESSO suite
     for quantum simulation of materials; please cite
         "P. Giannozzi et al., J. Phys.:Condens. Matter 21 395502 (2009);
         "P. Giannozzi et al., J. Phys.:Condens. Matter 29 465901 (2017);
         "P. Giannozzi et al., J. Chem. Phys. 152 154105 (2020);
          URL http://www.quantum-espresso.org", 
     in publications or presentations arising from this work. More details at
     http://www.quantum-espresso.org/quote

     Parallel version (MPI & OpenMP), running on       1 processor cores
     Number of MPI processes:                 1
     Threads/MPI process:                     1

     MPI processes distributed on     1 nodes
     409957 MiB available memory on the printing compute node when the environment starts
 
     Reading input from pwscf.in
Warning: card &FCP ignored
Warning: card &RISM ignored

     Current dimensions of program PWSCF are:
     Max number of different atomic species (ntypx) = 10
     Max number of k-points (npk) =  40000
     Max angular momentum in pseudopotentials (lmaxx) =  4
     file O.pbesol-n-kjpaw_psl.0.1.UPF: wavefunction(s)  2P renormalized
 check tnoseh fnoseh  F    1.000000000000000     
     Message from routine setup:
     using ibrav=0 with symmetry is DISCOURAGED, use correct ibrav instead
 
     Subspace diagonalization in iterative solution of the eigenvalue problem:
     a serial algorithm will be used

 
     G-vector sticks info
     --------------------
     sticks:   dense  smooth     PW     G-vecs:    dense   smooth      PW
     Sum        2417    1217    363               262791    92999   15035
 
     Using Slab Decomposition
 


     bravais-lattice index     =            0
     lattice parameter (alat)  =       9.5164  a.u.
     unit-cell volume          =    1946.0667 (a.u.)^3
     number of atoms/cell      =           22
     number of atomic types    =            3
     number of electrons       =       144.00
     number of Kohn-Sham states=           86
     kinetic-energy cutoff     =      50.0000  Ry
     charge density cutoff     =     400.0000  Ry
     scf convergence threshold =      5.6E-09
     mixing beta               =       0.7000
     number of iterations used =            8  plain     mixing
     energy convergence thresh.=      2.8E-04
     force convergence thresh. =      1.0E-04
     press convergence thresh. =      5.0E-01
     Exchange-correlation= PBESOL
                           (   1   4  10   8   0   0   0)
     nstep                     =          180


     GPU acceleration is ACTIVE.  1 visible GPUs per MPI rank
     GPU-aware MPI enabled


     GPU used by master process:

        Device Number: 0
        Device name: NVIDIA A100-SXM-64GB
        Compute capability : 80
        Ratio of single to double precision performance  : 2
        Memory Clock Rate (KHz): 1593000
        Memory Bus Width (bits): 4096
        Peak Memory Bandwidth (GB/s): ******
     Hubbard projectors: ortho-atomic
     Hubbard parameters of DFT+U (Dudarev formulation) in eV:
     U(Cr-3d) =  3.0000

     Internal variables: lda_plus_u = T, lda_plus_u_kind = 0

     celldm(1)=   9.516388  celldm(2)=   0.000000  celldm(3)=   0.000000
     celldm(4)=   0.000000  celldm(5)=   0.000000  celldm(6)=   0.000000

     crystal axes: (cart. coord. in units of alat)
               a(1) = (   0.999974   0.006218   0.003678 )  
               a(2) = (   0.537139   0.843486   0.003676 )  
               a(3) = (   0.070341   0.038877   2.688142 )  

     reciprocal axes: (cart. coord. in units 2 pi/alat)
               b(1) = (  1.004064 -0.639322 -0.017027 )  
               b(2) = ( -0.007339  1.190304 -0.017023 )  
               b(3) = ( -0.001364 -0.000753  0.372051 )  


     PseudoPot. # 1 for Cr read from file:
     /leonardo_scratch/large/userexternal/nalghamd/mc_mace/GNoME-screening/2_space_group_DFT/pseudo_SSSP1.3_aiida/cr_pbesol_v1.5.uspp.F.UPF
     MD5 check sum: a621641e0be27168676a837af8893d0f
     Pseudo is Ultrasoft + core correction, Zval = 14.0
     Generated by new atomic code, or converted to UPF format
     Using radial grid of  857 points,  6 beta functions with: 
                l(1) =   0
                l(2) =   0
                l(3) =   1
                l(4) =   1
                l(5) =   2
                l(6) =   2
     Q(r) pseudized with  8 coefficients,  rinner =    0.950   0.950   0.950
                                                       0.950   0.950

     PseudoPot. # 2 for O  read from file:
     /leonardo_scratch/large/userexternal/nalghamd/mc_mace/GNoME-screening/2_space_group_DFT/pseudo_SSSP1.3_aiida/O.pbesol-n-kjpaw_psl.0.1.UPF
     MD5 check sum: 81d73d1479e654e5638b0319f0d6c2c7
     Pseudo is Projector augmented-wave + core cor, Zval =  6.0
     Generated using "atomic" code by A. Dal Corso  v.6.0 svn rev. 13079
     Shape of augmentation charge: BESSEL
     Using radial grid of 1095 points,  4 beta functions with: 
                l(1) =   0
                l(2) =   0
                l(3) =   1
                l(4) =   1
     Q(r) pseudized with 0 coefficients 


     PseudoPot. # 3 for P  read from file:
     /leonardo_scratch/large/userexternal/nalghamd/mc_mace/GNoME-screening/2_space_group_DFT/pseudo_SSSP1.3_aiida/P.pbesol-n-rrkjus_psl.1.0.0.UPF
     MD5 check sum: bbb94b1b16383820d6a769669b5d42db
     Pseudo is Ultrasoft + core correction, Zval =  5.0
     Generated using "atomic" code by A. Dal Corso  v.6.0 svn rev. 13079
     Using radial grid of 1147 points,  6 beta functions with: 
                l(1) =   0
                l(2) =   0
                l(3) =   1
                l(4) =   1
                l(5) =   2
                l(6) =   2
     Q(r) pseudized with 0 coefficients 


     atomic species   valence    mass     pseudopotential
     Cr               14.00    51.99610     Cr( 1.00)
     O                 6.00    15.99940     O ( 1.00)
     P                 5.00    30.97376     P ( 1.00)

     Starting magnetic structure 
     atomic species   magnetization
     Cr              0.357
     O               0.100
     P               0.100

      2 Sym. Ops., with inversion, found


                                    s                        frac. trans.

      isym =  1     identity                                     

 cryst.   s( 1) = (     1          0          0      )
                  (     0          1          0      )
                  (     0          0          1      )

 cart.    s( 1) = (  1.0000000 -0.0000000 -0.0000000 )
                  (  0.0000000  1.0000000  0.0000000 )
                  ( -0.0000000 -0.0000000  1.0000000 )


      isym =  2     inversion                                    

 cryst.   s( 2) = (    -1          0          0      )
                  (     0         -1          0      )
                  (     0          0         -1      )

 cart.    s( 2) = ( -1.0000000  0.0000000  0.0000000 )
                  ( -0.0000000 -1.0000000 -0.0000000 )
                  (  0.0000000  0.0000000 -1.0000000 )


   Cartesian axes

     site n.     atom                  positions (alat units)
         1        Cr     tau(   1) = (   0.0351707   0.0194387   1.3440711  )
         2        Cr     tau(   2) = (   0.0000000   0.0000000   0.0000000  )
         3        P      tau(   3) = (   1.0253812   0.5921031   0.3014190  )
         4        P      tau(   4) = (   1.0819596   0.5728150   1.6454911  )
         5        P      tau(   5) = (   0.5254948   0.3157665   1.0500049  )
         6        P      tau(   6) = (   0.5820731   0.2964784   2.3940770  )
         7        O      tau(   7) = (   0.3645982   0.0920528   2.4699578  )
         8        O      tau(   8) = (   1.3707425   0.6482438   1.5696115  )
         9        O      tau(   9) = (   1.2428561   0.7965287   0.2255382  )
        10        O      tau(  10) = (   0.2367118   0.2403376   1.1258846  )
        11        O      tau(  11) = (   0.8540159   0.1525300   2.4061838  )
        12        O      tau(  12) = (   1.0592144   0.2659653   1.6333861  )
        13        O      tau(  13) = (   0.7534384   0.7360515   0.2893122  )
        14        O      tau(  14) = (   0.5482400   0.6226161   1.0621099  )
        15        O      tau(  15) = (   0.5878009   0.5291257   2.5971656  )
        16        O      tau(  16) = (   0.8819051   0.6917059   1.4424009  )
        17        O      tau(  17) = (   1.0196534   0.3594557   0.0983304  )
        18        O      tau(  18) = (   0.7255492   0.1968756   1.2530951  )
        19        O      tau(  19) = (   0.5864030   0.2049452   0.7757823  )
        20        O      tau(  20) = (   1.0868299   0.4815798   0.5756395  )
        21        O      tau(  21) = (   1.0210514   0.6836363   1.9197137  )
        22        O      tau(  22) = (   0.5206244   0.4070017   2.1198565  )

   Crystallographic axes

     site n.     atom                  positions (cryst. coord.)
         1        Cr     tau(   1) = ( -0.0000000 -0.0000000  0.5000000  )
         2        Cr     tau(   2) = (  0.0000000  0.0000000  0.0000000  )
         3        P      tau(   3) = (  0.6458714  0.6921263  0.1102990  )
         4        P      tau(   4) = (  0.6921250  0.6458725  0.6102993  )
         5        P      tau(   5) = (  0.3078750  0.3541275  0.3897007  )
         6        P      tau(   6) = (  0.3541286  0.3078737  0.8897010  )
         7        O      tau(   7) = (  0.2651716  0.0648495  0.9183830  )
         8        O      tau(   8) = (  0.9351502  0.7348281  0.5816176  )
         9        O      tau(   9) = (  0.7348284  0.9351505  0.0816170  )
        10        O      tau(  10) = (  0.0648498  0.2651719  0.4183824  )
        11        O      tau(  11) = (  0.7189999  0.1343295  0.8939429  )
        12        O      tau(  12) = (  0.8656693  0.2810012  0.6060577  )
        13        O      tau(  13) = (  0.2810001  0.8656705  0.1060571  )
        14        O      tau(  14) = (  0.1343307  0.7189988  0.3939423  )
        15        O      tau(  15) = (  0.2076849  0.5812956  0.9650773  )
        16        O      tau(  16) = (  0.4187060  0.7923142  0.5349228  )
        17        O      tau(  17) = (  0.7923151  0.4187044  0.0349227  )
        18        O      tau(  18) = (  0.5812940  0.2076858  0.4650772  )
        19        O      tau(  19) = (  0.4445506  0.2264375  0.2876763  )
        20        O      tau(  20) = (  0.7735606  0.5554510  0.2123223  )
        21        O      tau(  21) = (  0.5554494  0.7735625  0.7123237  )
        22        O      tau(  22) = (  0.2264394  0.4445490  0.7876777  )

     number of k points=   152  Marzari-Vanderbilt smearing, width (Ry)=  0.0200
                       cart. coord. in units 2pi/alat
        k(    1) = (   0.0000000   0.0000000   0.0000000), wk =   0.0033333
        k(    2) = (  -0.0004546  -0.0002510   0.1240169), wk =   0.0066667
        k(    3) = (  -0.0007339   0.1190304  -0.0017023), wk =   0.0066667
        k(    4) = (  -0.0011885   0.1187794   0.1223146), wk =   0.0066667
        k(    5) = (  -0.0002793   0.1192814  -0.1257192), wk =   0.0066667
        k(    6) = (  -0.0014678   0.2380608  -0.0034046), wk =   0.0066667
        k(    7) = (  -0.0019224   0.2378098   0.1206123), wk =   0.0066667
        k(    8) = (  -0.0010132   0.2383117  -0.1274215), wk =   0.0066667
        k(    9) = (  -0.0022017   0.3570912  -0.0051068), wk =   0.0066667
        k(   10) = (  -0.0026563   0.3568402   0.1189101), wk =   0.0066667
        k(   11) = (  -0.0017471   0.3573421  -0.1291237), wk =   0.0066667
        k(   12) = (  -0.0029356   0.4761215  -0.0068091), wk =   0.0066667
        k(   13) = (  -0.0033902   0.4758706   0.1172078), wk =   0.0066667
        k(   14) = (  -0.0024810   0.4763725  -0.1308260), wk =   0.0066667
        k(   15) = (   0.0036695  -0.5951519   0.0085114), wk =   0.0033333
        k(   16) = (   0.0032149  -0.5954029   0.1325283), wk =   0.0066667
        k(   17) = (   0.1004064  -0.0639322  -0.0017027), wk =   0.0066667
        k(   18) = (   0.0999518  -0.0641832   0.1223142), wk =   0.0066667
        k(   19) = (   0.1008610  -0.0636813  -0.1257196), wk =   0.0066667
        k(   20) = (   0.0996725   0.0550981  -0.0034050), wk =   0.0066667
        k(   21) = (   0.0992179   0.0548472   0.1206119), wk =   0.0066667
        k(   22) = (   0.1001271   0.0553491  -0.1274219), wk =   0.0066667
        k(   23) = (   0.0989386   0.1741285  -0.0051073), wk =   0.0066667
        k(   24) = (   0.0984840   0.1738776   0.1189096), wk =   0.0066667
        k(   25) = (   0.0993932   0.1743795  -0.1291242), wk =   0.0066667
        k(   26) = (   0.0982047   0.2931589  -0.0068096), wk =   0.0066667
        k(   27) = (   0.0977501   0.2929080   0.1172073), wk =   0.0066667
        k(   28) = (   0.0986593   0.2934099  -0.1308265), wk =   0.0066667
        k(   29) = (   0.0974708   0.4121893  -0.0085118), wk =   0.0066667
        k(   30) = (   0.0970162   0.4119383   0.1155051), wk =   0.0066667
        k(   31) = (   0.0979254   0.4124403  -0.1325287), wk =   0.0066667
        k(   32) = (   0.1040759  -0.6590842   0.0068086), wk =   0.0066667
        k(   33) = (   0.1036214  -0.6593351   0.1308255), wk =   0.0066667
        k(   34) = (   0.1045305  -0.6588332  -0.1172083), wk =   0.0066667
        k(   35) = (   0.1033420  -0.5400538   0.0051064), wk =   0.0066667
        k(   36) = (   0.1028875  -0.5403048   0.1291233), wk =   0.0066667
        k(   37) = (   0.1037966  -0.5398028  -0.1189105), wk =   0.0066667
        k(   38) = (   0.1026081  -0.4210234   0.0034041), wk =   0.0066667
        k(   39) = (   0.1021536  -0.4212744   0.1274210), wk =   0.0066667
        k(   40) = (   0.1030627  -0.4207724  -0.1206128), wk =   0.0066667
        k(   41) = (   0.1018742  -0.3019930   0.0017018), wk =   0.0066667
        k(   42) = (   0.1014196  -0.3022440   0.1257187), wk =   0.0066667
        k(   43) = (   0.1023288  -0.3017420  -0.1223151), wk =   0.0066667
        k(   44) = (   0.1011403  -0.1829626  -0.0000005), wk =   0.0066667
        k(   45) = (   0.1006857  -0.1832136   0.1240164), wk =   0.0066667
        k(   46) = (   0.1015949  -0.1827117  -0.1240174), wk =   0.0066667
        k(   47) = (   0.2008128  -0.1278645  -0.0034055), wk =   0.0066667
        k(   48) = (   0.2003583  -0.1281154   0.1206114), wk =   0.0066667
        k(   49) = (   0.2012674  -0.1276135  -0.1274224), wk =   0.0066667
        k(   50) = (   0.2000789  -0.0088341  -0.0051078), wk =   0.0066667
        k(   51) = (   0.1996244  -0.0090851   0.1189091), wk =   0.0066667
        k(   52) = (   0.2005335  -0.0085831  -0.1291247), wk =   0.0066667
        k(   53) = (   0.1993450   0.1101963  -0.0068100), wk =   0.0066667
        k(   54) = (   0.1988904   0.1099453   0.1172069), wk =   0.0066667
        k(   55) = (   0.1997996   0.1104473  -0.1308269), wk =   0.0066667
        k(   56) = (   0.1986111   0.2292267  -0.0085123), wk =   0.0066667
        k(   57) = (   0.1981565   0.2289757   0.1155046), wk =   0.0066667
        k(   58) = (   0.1990657   0.2294776  -0.1325292), wk =   0.0066667
        k(   59) = (   0.1978772   0.3482571  -0.0102146), wk =   0.0066667
        k(   60) = (   0.1974226   0.3480061   0.1138023), wk =   0.0066667
        k(   61) = (   0.1983318   0.3485080  -0.1342315), wk =   0.0066667
        k(   62) = (   0.2044824  -0.7230164   0.0051059), wk =   0.0066667
        k(   63) = (   0.2040278  -0.7232674   0.1291228), wk =   0.0066667
        k(   64) = (   0.2049370  -0.7227654  -0.1189110), wk =   0.0066667
        k(   65) = (   0.2037485  -0.6039860   0.0034036), wk =   0.0066667
        k(   66) = (   0.2032939  -0.6042370   0.1274205), wk =   0.0066667
        k(   67) = (   0.2042030  -0.6037351  -0.1206133), wk =   0.0066667
        k(   68) = (   0.2030146  -0.4849556   0.0017013), wk =   0.0066667
        k(   69) = (   0.2025600  -0.4852066   0.1257182), wk =   0.0066667
        k(   70) = (   0.2034691  -0.4847047  -0.1223156), wk =   0.0066667
        k(   71) = (   0.2022807  -0.3659253  -0.0000009), wk =   0.0066667
        k(   72) = (   0.2018261  -0.3661762   0.1240160), wk =   0.0066667
        k(   73) = (   0.2027352  -0.3656743  -0.1240178), wk =   0.0066667
        k(   74) = (   0.2015467  -0.2468949  -0.0017032), wk =   0.0066667
        k(   75) = (   0.2010922  -0.2471458   0.1223137), wk =   0.0066667
        k(   76) = (   0.2020013  -0.2466439  -0.1257201), wk =   0.0066667
        k(   77) = (   0.3012193  -0.1917967  -0.0051082), wk =   0.0066667
        k(   78) = (   0.3007647  -0.1920477   0.1189087), wk =   0.0066667
        k(   79) = (   0.3016739  -0.1915458  -0.1291251), wk =   0.0066667
        k(   80) = (   0.3004854  -0.0727663  -0.0068105), wk =   0.0066667
        k(   81) = (   0.3000308  -0.0730173   0.1172064), wk =   0.0066667
        k(   82) = (   0.3009399  -0.0725154  -0.1308274), wk =   0.0066667
        k(   83) = (   0.2997515   0.0462641  -0.0085128), wk =   0.0066667
        k(   84) = (   0.2992969   0.0460131   0.1155041), wk =   0.0066667
        k(   85) = (   0.3002060   0.0465150  -0.1325297), wk =   0.0066667
        k(   86) = (   0.2990176   0.1652944  -0.0102151), wk =   0.0066667
        k(   87) = (   0.2985630   0.1650435   0.1138018), wk =   0.0066667
        k(   88) = (   0.2994721   0.1655454  -0.1342320), wk =   0.0066667
        k(   89) = (   0.2982836   0.2843248  -0.0119173), wk =   0.0066667
        k(   90) = (   0.2978291   0.2840739   0.1120996), wk =   0.0066667
        k(   91) = (   0.2987382   0.2845758  -0.1359342), wk =   0.0066667
        k(   92) = (   0.3048888  -0.7869487   0.0034032), wk =   0.0066667
        k(   93) = (   0.3044342  -0.7871996   0.1274201), wk =   0.0066667
        k(   94) = (   0.3053434  -0.7866977  -0.1206138), wk =   0.0066667
        k(   95) = (   0.3041549  -0.6679183   0.0017009), wk =   0.0066667
        k(   96) = (   0.3037003  -0.6681692   0.1257178), wk =   0.0066667
        k(   97) = (   0.3046095  -0.6676673  -0.1223160), wk =   0.0066667
        k(   98) = (   0.3034210  -0.5488879  -0.0000014), wk =   0.0066667
        k(   99) = (   0.3029664  -0.5491389   0.1240155), wk =   0.0066667
        k(  100) = (   0.3038756  -0.5486369  -0.1240183), wk =   0.0066667
        k(  101) = (   0.3026871  -0.4298575  -0.0017037), wk =   0.0066667
        k(  102) = (   0.3022325  -0.4301085   0.1223132), wk =   0.0066667
        k(  103) = (   0.3031417  -0.4296065  -0.1257206), wk =   0.0066667
        k(  104) = (   0.3019532  -0.3108271  -0.0034060), wk =   0.0066667
        k(  105) = (   0.3014986  -0.3110781   0.1206109), wk =   0.0066667
        k(  106) = (   0.3024078  -0.3105761  -0.1274229), wk =   0.0066667
        k(  107) = (   0.4016257  -0.2557290  -0.0068110), wk =   0.0066667
        k(  108) = (   0.4011711  -0.2559799   0.1172059), wk =   0.0066667
        k(  109) = (   0.4020803  -0.2554780  -0.1308279), wk =   0.0066667
        k(  110) = (   0.4008918  -0.1366986  -0.0085132), wk =   0.0066667
        k(  111) = (   0.4004372  -0.1369495   0.1155037), wk =   0.0066667
        k(  112) = (   0.4013464  -0.1364476  -0.1325301), wk =   0.0066667
        k(  113) = (   0.4001579  -0.0176682  -0.0102155), wk =   0.0066667
        k(  114) = (   0.3997033  -0.0179192   0.1138014), wk =   0.0066667
        k(  115) = (   0.4006125  -0.0174172  -0.1342324), wk =   0.0066667
        k(  116) = (   0.3994240   0.1013622  -0.0119178), wk =   0.0066667
        k(  117) = (   0.3989694   0.1011112   0.1120991), wk =   0.0066667
        k(  118) = (   0.3998786   0.1016132  -0.1359347), wk =   0.0066667
        k(  119) = (   0.3986901   0.2203926  -0.0136201), wk =   0.0066667
        k(  120) = (   0.3982355   0.2201416   0.1103968), wk =   0.0066667
        k(  121) = (   0.3991447   0.2206436  -0.1376370), wk =   0.0066667
        k(  122) = (   0.4052952  -0.8508809   0.0017004), wk =   0.0066667
        k(  123) = (   0.4048406  -0.8511319   0.1257173), wk =   0.0066667
        k(  124) = (   0.4057498  -0.8506299  -0.1223165), wk =   0.0066667
        k(  125) = (   0.4045613  -0.7318505  -0.0000019), wk =   0.0066667
        k(  126) = (   0.4041067  -0.7321015   0.1240150), wk =   0.0066667
        k(  127) = (   0.4050159  -0.7315995  -0.1240188), wk =   0.0066667
        k(  128) = (   0.4038274  -0.6128201  -0.0017041), wk =   0.0066667
        k(  129) = (   0.4033728  -0.6130711   0.1223128), wk =   0.0066667
        k(  130) = (   0.4042820  -0.6125692  -0.1257210), wk =   0.0066667
        k(  131) = (   0.4030935  -0.4937897  -0.0034064), wk =   0.0066667
        k(  132) = (   0.4026389  -0.4940407   0.1206105), wk =   0.0066667
        k(  133) = (   0.4035481  -0.4935388  -0.1274233), wk =   0.0066667
        k(  134) = (   0.4023596  -0.3747593  -0.0051087), wk =   0.0066667
        k(  135) = (   0.4019050  -0.3750103   0.1189082), wk =   0.0066667
        k(  136) = (   0.4028142  -0.3745084  -0.1291256), wk =   0.0066667
        k(  137) = (  -0.5020321   0.3196612   0.0085137), wk =   0.0033333
        k(  138) = (  -0.5024867   0.3194102   0.1325306), wk =   0.0066667
        k(  139) = (  -0.5027660   0.4386916   0.0068114), wk =   0.0066667
        k(  140) = (  -0.5032206   0.4384406   0.1308283), wk =   0.0066667
        k(  141) = (  -0.5023114   0.4389426  -0.1172055), wk =   0.0066667
        k(  142) = (  -0.5034999   0.5577220   0.0051092), wk =   0.0066667
        k(  143) = (  -0.5039545   0.5574710   0.1291261), wk =   0.0066667
        k(  144) = (  -0.5030453   0.5579729  -0.1189077), wk =   0.0066667
        k(  145) = (  -0.5042338   0.6767524   0.0034069), wk =   0.0066667
        k(  146) = (  -0.5046884   0.6765014   0.1274238), wk =   0.0066667
        k(  147) = (  -0.5037792   0.6770033  -0.1206100), wk =   0.0066667
        k(  148) = (  -0.5049677   0.7957828   0.0017046), wk =   0.0066667
        k(  149) = (  -0.5054223   0.7955318   0.1257215), wk =   0.0066667
        k(  150) = (  -0.5045131   0.7960337  -0.1223123), wk =   0.0066667
        k(  151) = (  -0.4983626  -0.2754907   0.0170251), wk =   0.0033333
        k(  152) = (  -0.4988172  -0.2757417   0.1410420), wk =   0.0066667

                       cryst. coord.
        k(    1) = (   0.0000000   0.0000000   0.0000000), wk =   0.0033333
        k(    2) = (   0.0000000   0.0000000   0.3333333), wk =   0.0066667
        k(    3) = (  -0.0000000   0.1000000   0.0000000), wk =   0.0066667
        k(    4) = (  -0.0000000   0.1000000   0.3333333), wk =   0.0066667
        k(    5) = (  -0.0000000   0.1000000  -0.3333333), wk =   0.0066667
        k(    6) = (  -0.0000000   0.2000000   0.0000000), wk =   0.0066667
        k(    7) = (  -0.0000000   0.2000000   0.3333333), wk =   0.0066667
        k(    8) = (  -0.0000000   0.2000000  -0.3333333), wk =   0.0066667
        k(    9) = (  -0.0000000   0.3000000  -0.0000000), wk =   0.0066667
        k(   10) = (   0.0000000   0.3000000   0.3333333), wk =   0.0066667
        k(   11) = (  -0.0000000   0.3000000  -0.3333333), wk =   0.0066667
        k(   12) = (  -0.0000000   0.4000000   0.0000000), wk =   0.0066667
        k(   13) = (  -0.0000000   0.4000000   0.3333333), wk =   0.0066667
        k(   14) = (  -0.0000000   0.4000000  -0.3333333), wk =   0.0066667
        k(   15) = (   0.0000000  -0.5000000   0.0000000), wk =   0.0033333
        k(   16) = (   0.0000000  -0.5000000   0.3333333), wk =   0.0066667
        k(   17) = (   0.1000000   0.0000000   0.0000000), wk =   0.0066667
        k(   18) = (   0.1000000   0.0000000   0.3333333), wk =   0.0066667
        k(   19) = (   0.1000000  -0.0000000  -0.3333333), wk =   0.0066667
        k(   20) = (   0.1000000   0.1000000  -0.0000000), wk =   0.0066667
        k(   21) = (   0.1000000   0.1000000   0.3333333), wk =   0.0066667
        k(   22) = (   0.1000000   0.1000000  -0.3333333), wk =   0.0066667
        k(   23) = (   0.1000000   0.2000000  -0.0000000), wk =   0.0066667
        k(   24) = (   0.1000000   0.2000000   0.3333333), wk =   0.0066667
        k(   25) = (   0.1000000   0.2000000  -0.3333333), wk =   0.0066667
        k(   26) = (   0.1000000   0.3000000  -0.0000000), wk =   0.0066667
        k(   27) = (   0.1000000   0.3000000   0.3333333), wk =   0.0066667
        k(   28) = (   0.1000000   0.3000000  -0.3333333), wk =   0.0066667
        k(   29) = (   0.1000000   0.4000000  -0.0000000), wk =   0.0066667
        k(   30) = (   0.1000000   0.4000000   0.3333333), wk =   0.0066667
        k(   31) = (   0.1000000   0.4000000  -0.3333333), wk =   0.0066667
        k(   32) = (   0.1000000  -0.5000000   0.0000000), wk =   0.0066667
        k(   33) = (   0.1000000  -0.5000000   0.3333333), wk =   0.0066667
        k(   34) = (   0.1000000  -0.5000000  -0.3333333), wk =   0.0066667
        k(   35) = (   0.1000000  -0.4000000   0.0000000), wk =   0.0066667
        k(   36) = (   0.1000000  -0.4000000   0.3333333), wk =   0.0066667
        k(   37) = (   0.1000000  -0.4000000  -0.3333333), wk =   0.0066667
        k(   38) = (   0.1000000  -0.3000000   0.0000000), wk =   0.0066667
        k(   39) = (   0.1000000  -0.3000000   0.3333333), wk =   0.0066667
        k(   40) = (   0.1000000  -0.3000000  -0.3333333), wk =   0.0066667
        k(   41) = (   0.1000000  -0.2000000   0.0000000), wk =   0.0066667
        k(   42) = (   0.1000000  -0.2000000   0.3333333), wk =   0.0066667
        k(   43) = (   0.1000000  -0.2000000  -0.3333333), wk =   0.0066667
        k(   44) = (   0.1000000  -0.1000000   0.0000000), wk =   0.0066667
        k(   45) = (   0.1000000  -0.1000000   0.3333333), wk =   0.0066667
        k(   46) = (   0.1000000  -0.1000000  -0.3333333), wk =   0.0066667
        k(   47) = (   0.2000000   0.0000000   0.0000000), wk =   0.0066667
        k(   48) = (   0.2000000   0.0000000   0.3333333), wk =   0.0066667
        k(   49) = (   0.2000000   0.0000000  -0.3333333), wk =   0.0066667
        k(   50) = (   0.2000000   0.1000000  -0.0000000), wk =   0.0066667
        k(   51) = (   0.2000000   0.1000000   0.3333333), wk =   0.0066667
        k(   52) = (   0.2000000   0.1000000  -0.3333333), wk =   0.0066667
        k(   53) = (   0.2000000   0.2000000  -0.0000000), wk =   0.0066667
        k(   54) = (   0.2000000   0.2000000   0.3333333), wk =   0.0066667
        k(   55) = (   0.2000000   0.2000000  -0.3333333), wk =   0.0066667
        k(   56) = (   0.2000000   0.3000000  -0.0000000), wk =   0.0066667
        k(   57) = (   0.2000000   0.3000000   0.3333333), wk =   0.0066667
        k(   58) = (   0.2000000   0.3000000  -0.3333333), wk =   0.0066667
        k(   59) = (   0.2000000   0.4000000  -0.0000000), wk =   0.0066667
        k(   60) = (   0.2000000   0.4000000   0.3333333), wk =   0.0066667
        k(   61) = (   0.2000000   0.4000000  -0.3333333), wk =   0.0066667
        k(   62) = (   0.2000000  -0.5000000  -0.0000000), wk =   0.0066667
        k(   63) = (   0.2000000  -0.5000000   0.3333333), wk =   0.0066667
        k(   64) = (   0.2000000  -0.5000000  -0.3333333), wk =   0.0066667
        k(   65) = (   0.2000000  -0.4000000  -0.0000000), wk =   0.0066667
        k(   66) = (   0.2000000  -0.4000000   0.3333333), wk =   0.0066667
        k(   67) = (   0.2000000  -0.4000000  -0.3333333), wk =   0.0066667
        k(   68) = (   0.2000000  -0.3000000  -0.0000000), wk =   0.0066667
        k(   69) = (   0.2000000  -0.3000000   0.3333333), wk =   0.0066667
        k(   70) = (   0.2000000  -0.3000000  -0.3333333), wk =   0.0066667
        k(   71) = (   0.2000000  -0.2000000   0.0000000), wk =   0.0066667
        k(   72) = (   0.2000000  -0.2000000   0.3333333), wk =   0.0066667
        k(   73) = (   0.2000000  -0.2000000  -0.3333333), wk =   0.0066667
        k(   74) = (   0.2000000  -0.1000000  -0.0000000), wk =   0.0066667
        k(   75) = (   0.2000000  -0.1000000   0.3333333), wk =   0.0066667
        k(   76) = (   0.2000000  -0.1000000  -0.3333333), wk =   0.0066667
        k(   77) = (   0.3000000  -0.0000000  -0.0000000), wk =   0.0066667
        k(   78) = (   0.3000000  -0.0000000   0.3333333), wk =   0.0066667
        k(   79) = (   0.3000000  -0.0000000  -0.3333333), wk =   0.0066667
        k(   80) = (   0.3000000   0.1000000  -0.0000000), wk =   0.0066667
        k(   81) = (   0.3000000   0.1000000   0.3333333), wk =   0.0066667
        k(   82) = (   0.3000000   0.1000000  -0.3333333), wk =   0.0066667
        k(   83) = (   0.3000000   0.2000000  -0.0000000), wk =   0.0066667
        k(   84) = (   0.3000000   0.2000000   0.3333333), wk =   0.0066667
        k(   85) = (   0.3000000   0.2000000  -0.3333333), wk =   0.0066667
        k(   86) = (   0.3000000   0.3000000  -0.0000000), wk =   0.0066667
        k(   87) = (   0.3000000   0.3000000   0.3333333), wk =   0.0066667
        k(   88) = (   0.3000000   0.3000000  -0.3333333), wk =   0.0066667
        k(   89) = (   0.3000000   0.4000000  -0.0000000), wk =   0.0066667
        k(   90) = (   0.3000000   0.4000000   0.3333333), wk =   0.0066667
        k(   91) = (   0.3000000   0.4000000  -0.3333333), wk =   0.0066667
        k(   92) = (   0.3000000  -0.5000000   0.0000000), wk =   0.0066667
        k(   93) = (   0.3000000  -0.5000000   0.3333333), wk =   0.0066667
        k(   94) = (   0.3000000  -0.5000000  -0.3333333), wk =   0.0066667
        k(   95) = (   0.3000000  -0.4000000   0.0000000), wk =   0.0066667
        k(   96) = (   0.3000000  -0.4000000   0.3333333), wk =   0.0066667
        k(   97) = (   0.3000000  -0.4000000  -0.3333333), wk =   0.0066667
        k(   98) = (   0.3000000  -0.3000000  -0.0000000), wk =   0.0066667
        k(   99) = (   0.3000000  -0.3000000   0.3333333), wk =   0.0066667
        k(  100) = (   0.3000000  -0.3000000  -0.3333333), wk =   0.0066667
        k(  101) = (   0.3000000  -0.2000000  -0.0000000), wk =   0.0066667
        k(  102) = (   0.3000000  -0.2000000   0.3333333), wk =   0.0066667
        k(  103) = (   0.3000000  -0.2000000  -0.3333333), wk =   0.0066667
        k(  104) = (   0.3000000  -0.1000000  -0.0000000), wk =   0.0066667
        k(  105) = (   0.3000000  -0.1000000   0.3333333), wk =   0.0066667
        k(  106) = (   0.3000000  -0.1000000  -0.3333333), wk =   0.0066667
        k(  107) = (   0.4000000   0.0000000   0.0000000), wk =   0.0066667
        k(  108) = (   0.4000000   0.0000000   0.3333333), wk =   0.0066667
        k(  109) = (   0.4000000   0.0000000  -0.3333333), wk =   0.0066667
        k(  110) = (   0.4000000   0.1000000   0.0000000), wk =   0.0066667
        k(  111) = (   0.4000000   0.1000000   0.3333333), wk =   0.0066667
        k(  112) = (   0.4000000   0.1000000  -0.3333333), wk =   0.0066667
        k(  113) = (   0.4000000   0.2000000  -0.0000000), wk =   0.0066667
        k(  114) = (   0.4000000   0.2000000   0.3333333), wk =   0.0066667
        k(  115) = (   0.4000000   0.2000000  -0.3333333), wk =   0.0066667
        k(  116) = (   0.4000000   0.3000000  -0.0000000), wk =   0.0066667
        k(  117) = (   0.4000000   0.3000000   0.3333333), wk =   0.0066667
        k(  118) = (   0.4000000   0.3000000  -0.3333333), wk =   0.0066667
        k(  119) = (   0.4000000   0.4000000  -0.0000000), wk =   0.0066667
        k(  120) = (   0.4000000   0.4000000   0.3333333), wk =   0.0066667
        k(  121) = (   0.4000000   0.4000000  -0.3333333), wk =   0.0066667
        k(  122) = (   0.4000000  -0.5000000  -0.0000000), wk =   0.0066667
        k(  123) = (   0.4000000  -0.5000000   0.3333333), wk =   0.0066667
        k(  124) = (   0.4000000  -0.5000000  -0.3333333), wk =   0.0066667
        k(  125) = (   0.4000000  -0.4000000   0.0000000), wk =   0.0066667
        k(  126) = (   0.4000000  -0.4000000   0.3333333), wk =   0.0066667
        k(  127) = (   0.4000000  -0.4000000  -0.3333333), wk =   0.0066667
        k(  128) = (   0.4000000  -0.3000000   0.0000000), wk =   0.0066667
        k(  129) = (   0.4000000  -0.3000000   0.3333333), wk =   0.0066667
        k(  130) = (   0.4000000  -0.3000000  -0.3333333), wk =   0.0066667
        k(  131) = (   0.4000000  -0.2000000  -0.0000000), wk =   0.0066667
        k(  132) = (   0.4000000  -0.2000000   0.3333333), wk =   0.0066667
        k(  133) = (   0.4000000  -0.2000000  -0.3333333), wk =   0.0066667
        k(  134) = (   0.4000000  -0.1000000   0.0000000), wk =   0.0066667
        k(  135) = (   0.4000000  -0.1000000   0.3333333), wk =   0.0066667
        k(  136) = (   0.4000000  -0.1000000  -0.3333333), wk =   0.0066667
        k(  137) = (  -0.5000000  -0.0000000   0.0000000), wk =   0.0033333
        k(  138) = (  -0.5000000  -0.0000000   0.3333333), wk =   0.0066667
        k(  139) = (  -0.5000000   0.1000000   0.0000000), wk =   0.0066667
        k(  140) = (  -0.5000000   0.1000000   0.3333333), wk =   0.0066667
        k(  141) = (  -0.5000000   0.1000000  -0.3333333), wk =   0.0066667
        k(  142) = (  -0.5000000   0.2000000  -0.0000000), wk =   0.0066667
        k(  143) = (  -0.5000000   0.2000000   0.3333333), wk =   0.0066667
        k(  144) = (  -0.5000000   0.2000000  -0.3333333), wk =   0.0066667
        k(  145) = (  -0.5000000   0.3000000   0.0000000), wk =   0.0066667
        k(  146) = (  -0.5000000   0.3000000   0.3333333), wk =   0.0066667
        k(  147) = (  -0.5000000   0.3000000  -0.3333333), wk =   0.0066667
        k(  148) = (  -0.5000000   0.4000000  -0.0000000), wk =   0.0066667
        k(  149) = (  -0.5000000   0.4000000   0.3333333), wk =   0.0066667
        k(  150) = (  -0.5000000   0.4000000  -0.3333333), wk =   0.0066667
        k(  151) = (  -0.5000000  -0.5000000   0.0000000), wk =   0.0033333
        k(  152) = (  -0.5000000  -0.5000000   0.3333333), wk =   0.0066667

     Dense  grid:   262791 G-vectors     FFT dimensions: (  64,  64, 180)

     Smooth grid:    92999 G-vectors     FFT dimensions: (  45,  45, 120)

     Dynamical RAM for                 wfc:      15.25 MB

     Dynamical RAM for     wfc (w. buffer):    4650.37 MB

     Dynamical RAM for             U proj.:       1.77 MB

     Dynamical RAM for  U proj. (w. buff.):     540.74 MB

     Dynamical RAM for           str. fact:      12.03 MB

     Dynamical RAM for           local pot:       0.00 MB

     Dynamical RAM for          nlocal pot:      41.84 MB

     Dynamical RAM for                qrad:       9.63 MB

     Dynamical RAM for          rho,v,vnew:      57.81 MB

     Dynamical RAM for               rhoin:      19.27 MB

     Dynamical RAM for            rho*nmix:     128.32 MB

     Dynamical RAM for           G-vectors:      15.75 MB

     Dynamical RAM for          h,s,v(r/c):       0.34 MB

     Dynamical RAM for          <psi|beta>:       0.31 MB

     Dynamical RAM for      wfcinit/wfcrot:      30.66 MB

     Dynamical RAM for           addusdens:     814.00 MB

     Dynamical RAM for          addusforce:     934.43 MB

     Dynamical RAM for         addusstress:     812.00 MB

     Estimated static dynamical RAM per process >       5.27 GB

     Estimated max dynamical RAM per process >       6.31 GB

     Check: negative core charge=   -0.000003
     Generating pointlists ...
     new r_m :   0.1511 (alat units)  1.4376 (a.u.) for type    1
     new r_m :   0.1246 (alat units)  1.1854 (a.u.) for type    2
     new r_m :   0.1246 (alat units)  1.1854 (a.u.) for type    3

     Initial potential from superposition of free atoms

     starting charge     141.9993, renormalised to     144.0000

     negative rho (up, down):  1.027E-03 4.826E-04

     HUBBARD ENERGY =    0.2399  (Ry)

     STARTING HUBBARD OCCUPATIONS:

     =================== HUBBARD OCCUPATIONS ===================
     ------------------------ ATOM    1 ------------------------
     Tr[ns(  1)] (up, down, total) =   3.40000  0.00000  3.40000
     Atomic magnetic moment for atom   1 =   3.40000
     SPIN  1
     eigenvalues:
       0.680  0.680  0.680  0.680  0.680
     eigenvectors (columns):
       1.000  0.000  0.000  0.000  0.000
       0.000  1.000  0.000  0.000  0.000
       0.000  0.000  1.000  0.000  0.000
       0.000  0.000  0.000  1.000  0.000
       0.000  0.000  0.000  0.000  1.000
     occupation matrix ns (before diag.):
       0.680  0.000  0.000  0.000  0.000
       0.000  0.680  0.000  0.000  0.000
       0.000  0.000  0.680  0.000  0.000
       0.000  0.000  0.000  0.680  0.000
       0.000  0.000  0.000  0.000  0.680
     SPIN  2
     eigenvalues:
       0.000  0.000  0.000  0.000  0.000
     eigenvectors (columns):
       1.000  0.000  0.000  0.000  0.000
       0.000  1.000  0.000  0.000  0.000
       0.000  0.000  1.000  0.000  0.000
       0.000  0.000  0.000  1.000  0.000
       0.000  0.000  0.000  0.000  1.000
     occupation matrix ns (before diag.):
       0.000  0.000  0.000  0.000  0.000
       0.000  0.000  0.000  0.000  0.000
       0.000  0.000  0.000  0.000  0.000
       0.000  0.000  0.000  0.000  0.000
       0.000  0.000  0.000  0.000  0.000
     ------------------------ ATOM    2 ------------------------
     Tr[ns(  2)] (up, down, total) =   3.40000  0.00000  3.40000
     Atomic magnetic moment for atom   2 =   3.40000
     SPIN  1
     eigenvalues:
       0.680  0.680  0.680  0.680  0.680
     eigenvectors (columns):
       1.000  0.000  0.000  0.000  0.000
       0.000  1.000  0.000  0.000  0.000
       0.000  0.000  1.000  0.000  0.000
       0.000  0.000  0.000  1.000  0.000
       0.000  0.000  0.000  0.000  1.000
     occupation matrix ns (before diag.):
       0.680  0.000  0.000  0.000  0.000
       0.000  0.680  0.000  0.000  0.000
       0.000  0.000  0.680  0.000  0.000
       0.000  0.000  0.000  0.680  0.000
       0.000  0.000  0.000  0.000  0.680
     SPIN  2
     eigenvalues:
       0.000  0.000  0.000  0.000  0.000
     eigenvectors (columns):
       1.000  0.000  0.000  0.000  0.000
       0.000  1.000  0.000  0.000  0.000
       0.000  0.000  1.000  0.000  0.000
       0.000  0.000  0.000  1.000  0.000
       0.000  0.000  0.000  0.000  1.000
     occupation matrix ns (before diag.):
       0.000  0.000  0.000  0.000  0.000
       0.000  0.000  0.000  0.000  0.000
       0.000  0.000  0.000  0.000  0.000
       0.000  0.000  0.000  0.000  0.000
       0.000  0.000  0.000  0.000  0.000

     Number of occupied Hubbard levels =    6.8000

     Atomic wfc used for Hubbard projectors are orthogonalized

     Starting wfcs are  100 randomized atomic wfcs
     Checking if some PAW data can be deallocated... 

     total cpu time spent up to now is       11.7 secs

     Self-consistent Calculation
[tb_dev] Currently allocated     1.16E+00 Mbytes, locked:    0 /   3
[tb_pin] Currently allocated     0.00E+00 Mbytes, locked:    0 /   0

     iteration #  1     ecut=    50.00 Ry     beta= 0.70
     CG style diagonalization

---- Real-time Memory Report at c_bands before calling an iterative solver
          5898 MiB given to the printing process from OS
             0 MiB allocation reported by mallinfo(arena+hblkhd)
        396047 MiB available memory on the node where the printing process lives
     GPU memory used/free/total (MiB): 2548 / 62396 / 64944
------------------
     ethr =  1.00E-02,  avg # of iterations =  3.0

     =================== HUBBARD OCCUPATIONS ===================
     ------------------------ ATOM    1 ------------------------
     Tr[ns(  1)] (up, down, total) =   3.47340  0.54904  4.02243
     Atomic magnetic moment for atom   1 =   2.92436
     SPIN  1
     eigenvalues:
       0.331  0.358  0.854  0.945  0.986
     eigenvectors (columns):
       0.304  0.273 -0.175  0.514 -0.734
       0.514 -0.265 -0.776 -0.091  0.235
      -0.049 -0.867  0.139 -0.121 -0.461
      -0.350 -0.295 -0.122  0.811  0.342
       0.720 -0.128  0.578  0.234  0.277
     occupation matrix ns (before diag.):
       0.863 -0.073  0.164  0.101 -0.113
      -0.073  0.689 -0.114  0.059 -0.204
       0.164 -0.114  0.510 -0.166 -0.056
       0.101  0.059 -0.166  0.822  0.143
      -0.113 -0.204 -0.056  0.143  0.590
     SPIN  2
     eigenvalues:
       0.066  0.072  0.075  0.167  0.169
     eigenvectors (columns):
       0.902  0.144 -0.173 -0.319  0.186
      -0.261  0.169 -0.738 -0.474 -0.366
       0.326 -0.388  0.056  0.234 -0.828
       0.066  0.875  0.057  0.394 -0.269
      -0.091  0.188  0.647 -0.681 -0.272
     occupation matrix ns (before diag.):
       0.080  0.010 -0.024 -0.017  0.016
       0.010  0.108  0.019 -0.008  0.039
      -0.024  0.019  0.143  0.030  0.007
      -0.017 -0.008  0.030  0.094 -0.018
       0.016  0.039  0.007 -0.018  0.125
     ------------------------ ATOM    2 ------------------------
     Tr[ns(  2)] (up, down, total) =   3.46207  0.55002  4.01209
     Atomic magnetic moment for atom   2 =   2.91204
     SPIN  1
     eigenvalues:
       0.331  0.360  0.847  0.942  0.982
     eigenvectors (columns):
       0.299  0.278  0.150  0.519 -0.736
       0.246 -0.871  0.295 -0.143 -0.269
       0.458  0.244  0.737  0.006  0.433
       0.800  0.026 -0.568 -0.157  0.109
       0.003 -0.322 -0.156  0.828  0.432
     occupation matrix ns (before diag.):
       0.862  0.100 -0.147 -0.146  0.041
       0.100  0.457  0.029 -0.092 -0.164
      -0.147  0.029  0.736 -0.186  0.063
      -0.146 -0.092 -0.186  0.520 -0.003
       0.041 -0.164  0.063 -0.003  0.887
     SPIN  2
     eigenvalues:
       0.066  0.072  0.076  0.167  0.169
     eigenvectors (columns):
       0.902 -0.157  0.162  0.301 -0.213
       0.141  0.230  0.348  0.136  0.887
      -0.392 -0.360  0.651  0.511 -0.178
      -0.114  0.223 -0.553  0.793  0.056
       0.008 -0.862 -0.351 -0.027  0.364
     occupation matrix ns (before diag.):
       0.080 -0.015  0.021  0.022 -0.009
      -0.015  0.150 -0.008  0.014  0.030
       0.021 -0.008  0.101  0.036 -0.008
       0.022  0.014  0.036  0.133  0.001
      -0.009  0.030 -0.008  0.001  0.085

     Number of occupied Hubbard levels =    8.0345

     negative rho (up, down):  3.038E-05 5.554E-03

     HUBBARD ENERGY =    0.2482  (Ry)

     total cpu time spent up to now is      194.5 secs

     total energy              =   -1058.85018807 Ry
     estimated scf accuracy    <       5.54731596 Ry

     total magnetization       =    10.72 Bohr mag/cell
     absolute magnetization    =    11.36 Bohr mag/cell
[tb_dev] Currently allocated     0.00E+00 Mbytes, locked:    0 /   0
[tb_pin] Currently allocated     0.00E+00 Mbytes, locked:    0 /   0

     iteration #  2     ecut=    50.00 Ry     beta= 0.70
     CG style diagonalization

---- Real-time Memory Report at c_bands before calling an iterative solver
          5947 MiB given to the printing process from OS
             0 MiB allocation reported by mallinfo(arena+hblkhd)
        414578 MiB available memory on the node where the printing process lives
     GPU memory used/free/total (MiB): 2604 / 62340 / 64944
------------------
     ethr =  3.85E-03,  avg # of iterations =  4.8

     =================== HUBBARD OCCUPATIONS ===================
     ------------------------ ATOM    1 ------------------------
     Tr[ns(  1)] (up, down, total) =   2.62162  0.64527  3.26689
     Atomic magnetic moment for atom   1 =   1.97636
     SPIN  1
     eigenvalues:
       0.295  0.316  0.553  0.714  0.744
     eigenvectors (columns):
       0.245  0.360 -0.115  0.479 -0.753
      -0.301  0.328 -0.879 -0.048  0.163
      -0.855 -0.142  0.163 -0.130 -0.454
      -0.214 -0.426 -0.081  0.833  0.269
      -0.270  0.749  0.425  0.239  0.358
     occupation matrix ns (before diag.):
       0.652 -0.036  0.121  0.075 -0.080
      -0.036  0.509 -0.068  0.018 -0.070
       0.121 -0.068  0.402 -0.102 -0.070
       0.075  0.018 -0.102  0.623  0.111
      -0.080 -0.070 -0.070  0.111  0.435
     SPIN  2
     eigenvalues:
       0.070  0.078  0.084  0.193  0.220
     eigenvectors (columns):
      -0.874 -0.264  0.199 -0.219  0.280
      -0.101  0.142 -0.744  0.291  0.576
      -0.074 -0.491  0.144  0.845 -0.133
      -0.410  0.770  0.077  0.346 -0.336
       0.229  0.275  0.617  0.181  0.677
     occupation matrix ns (before diag.):
       0.089  0.014 -0.027 -0.025  0.025
       0.014  0.138  0.017 -0.017  0.059
      -0.027  0.017  0.163  0.040  0.006
      -0.025 -0.017  0.040  0.107 -0.024
       0.025  0.059  0.006 -0.024  0.149
     ------------------------ ATOM    2 ------------------------
     Tr[ns(  2)] (up, down, total) =   2.95244  0.67185  3.62429
     Atomic magnetic moment for atom   2 =   2.28059
     SPIN  1
     eigenvalues:
       0.302  0.328  0.669  0.758  0.896
     eigenvectors (columns):
       0.225  0.334  0.049 -0.033  0.913
      -0.893  0.101  0.344  0.209  0.173
       0.204  0.428  0.757 -0.367 -0.260
      -0.108  0.832 -0.470  0.117 -0.248
      -0.314 -0.056 -0.292 -0.898  0.081
     occupation matrix ns (before diag.):
       0.802  0.097 -0.118 -0.138  0.052
       0.097  0.384  0.035 -0.072 -0.114
      -0.118  0.035  0.618 -0.103  0.056
      -0.138 -0.072 -0.103  0.444 -0.010
       0.052 -0.114  0.056 -0.010  0.705
     SPIN  2
     eigenvalues:
       0.072  0.086  0.094  0.197  0.223
     eigenvectors (columns):
      -0.901  0.248 -0.016 -0.227 -0.274
      -0.154 -0.033 -0.425  0.865 -0.215
       0.002 -0.801 -0.093 -0.213 -0.552
       0.369  0.505  0.188 -0.012 -0.758
      -0.169 -0.204  0.880  0.394 -0.006
     occupation matrix ns (before diag.):
       0.091 -0.016  0.026  0.033 -0.012
      -0.016  0.176 -0.004  0.021  0.034
       0.026 -0.004  0.133  0.057 -0.009
       0.033  0.021  0.057  0.163  0.002
      -0.012  0.034 -0.009  0.002  0.109

     Number of occupied Hubbard levels =    6.8912

     negative rho (up, down):  8.545E-05 6.145E-03

     HUBBARD ENERGY =    0.2756  (Ry)

     total cpu time spent up to now is      425.3 secs

     total energy              =   -1059.03240434 Ry
     estimated scf accuracy    <      20.56965380 Ry

     total magnetization       =     3.63 Bohr mag/cell
     absolute magnetization    =     5.52 Bohr mag/cell
[tb_dev] Currently allocated     0.00E+00 Mbytes, locked:    0 /   0
[tb_pin] Currently allocated     0.00E+00 Mbytes, locked:    0 /   0

     iteration #  3     ecut=    50.00 Ry     beta= 0.70
     CG style diagonalization

---- Real-time Memory Report at c_bands before calling an iterative solver
          5957 MiB given to the printing process from OS
             0 MiB allocation reported by mallinfo(arena+hblkhd)
        398358 MiB available memory on the node where the printing process lives
     GPU memory used/free/total (MiB): 2604 / 62340 / 64944
------------------
     ethr =  3.85E-03,  avg # of iterations =  3.8

     =================== HUBBARD OCCUPATIONS ===================
     ------------------------ ATOM    1 ------------------------
     Tr[ns(  1)] (up, down, total) =   4.34309  1.51720  5.86029
     Atomic magnetic moment for atom   1 =   2.82589
     SPIN  1
     eigenvalues:
       0.560  0.805  0.991  0.993  0.994
     eigenvectors (columns):
       0.245  0.312  0.419  0.291  0.763
      -0.309  0.488 -0.635 -0.346  0.380
      -0.855 -0.133  0.466 -0.140  0.126
      -0.275 -0.369 -0.439  0.746  0.196
      -0.197  0.715  0.110  0.468 -0.468
     occupation matrix ns (before diag.):
       0.949  0.005  0.098  0.051 -0.022
       0.005  0.906 -0.102 -0.003 -0.092
       0.098 -0.102  0.673 -0.111 -0.055
       0.051 -0.003 -0.111  0.934  0.026
      -0.022 -0.092 -0.055  0.026  0.880
     SPIN  2
     eigenvalues:
       0.234  0.278  0.318  0.325  0.361
     eigenvectors (columns):
      -0.894 -0.392 -0.102  0.101 -0.164
       0.006  0.183 -0.852  0.389  0.299
      -0.367  0.441  0.363  0.027  0.734
       0.255 -0.771  0.125  0.235  0.519
      -0.043 -0.155 -0.342 -0.885  0.273
     occupation matrix ns (before diag.):
       0.246  0.002 -0.026  0.004 -0.008
       0.002  0.322  0.006  0.013  0.002
      -0.026  0.006  0.322  0.038  0.010
       0.004  0.013  0.038  0.301  0.001
      -0.008  0.002  0.010  0.001  0.326
     ------------------------ ATOM    2 ------------------------
     Tr[ns(  2)] (up, down, total) =   3.29027  0.93034  4.22060
     Atomic magnetic moment for atom   2 =   2.35993
     SPIN  1
     eigenvalues:
       0.387  0.432  0.777  0.835  0.859
     eigenvectors (columns):
       0.345 -0.262 -0.109  0.497 -0.744
       0.176  0.898 -0.328 -0.058 -0.227
       0.424 -0.208 -0.712  0.172  0.490
       0.818  0.039  0.502 -0.247  0.127
      -0.040  0.281  0.348  0.811  0.374
     occupation matrix ns (before diag.):
       0.767  0.070 -0.101 -0.121  0.031
       0.070  0.491  0.026 -0.070 -0.094
      -0.101  0.026  0.714 -0.130  0.050
      -0.121 -0.070 -0.130  0.521  0.001
       0.031 -0.094  0.050  0.001  0.799
     SPIN  2
     eigenvalues:
       0.115  0.128  0.143  0.269  0.276
     eigenvectors (columns):
       0.924  0.219  0.119 -0.218 -0.190
       0.135 -0.230  0.415 -0.174  0.852
      -0.354  0.485  0.551 -0.546 -0.193
      -0.040 -0.358 -0.497 -0.790 -0.009
      -0.019  0.732 -0.513 -0.014  0.448
     occupation matrix ns (before diag.):
       0.129 -0.019  0.027  0.024 -0.013
      -0.019  0.242 -0.007  0.015  0.054
       0.027 -0.007  0.178  0.057 -0.016
       0.024  0.015  0.057  0.219  0.005
      -0.013  0.054 -0.016  0.005  0.161

     Number of occupied Hubbard levels =   10.0809

     negative rho (up, down):  1.025E-05 5.984E-03

     HUBBARD ENERGY =    0.2854  (Ry)

     total cpu time spent up to now is      600.3 secs

     total energy              =   -1062.25809439 Ry
     estimated scf accuracy    <      15.70918541 Ry

     total magnetization       =     6.59 Bohr mag/cell
     absolute magnetization    =     7.25 Bohr mag/cell
[tb_dev] Currently allocated     0.00E+00 Mbytes, locked:    0 /   0
[tb_pin] Currently allocated     0.00E+00 Mbytes, locked:    0 /   0

     iteration #  4     ecut=    50.00 Ry     beta= 0.70
     CG style diagonalization

---- Real-time Memory Report at c_bands before calling an iterative solver
          5967 MiB given to the printing process from OS
             0 MiB allocation reported by mallinfo(arena+hblkhd)
        395748 MiB available memory on the node where the printing process lives
     GPU memory used/free/total (MiB): 2604 / 62340 / 64944
------------------
     ethr =  3.85E-03,  avg # of iterations =  3.1

     =================== HUBBARD OCCUPATIONS ===================
     ------------------------ ATOM    1 ------------------------
     Tr[ns(  1)] (up, down, total) =   2.03097  0.71908  2.75004
     Atomic magnetic moment for atom   1 =   1.31189
     SPIN  1
     eigenvalues:
       0.294  0.327  0.437  0.467  0.505
     eigenvectors (columns):
       0.448  0.332  0.185  0.288  0.757
       0.329 -0.269 -0.891 -0.038  0.156
       0.058 -0.897  0.315  0.236  0.192
      -0.444 -0.092 -0.007 -0.688  0.566
       0.701 -0.069  0.269 -0.621 -0.213
     occupation matrix ns (before diag.):
       0.438 -0.003  0.041  0.055 -0.059
      -0.003  0.415 -0.027  0.025 -0.036
       0.041 -0.027  0.352 -0.003 -0.020
       0.055  0.025 -0.003  0.444  0.048
      -0.059 -0.036 -0.020  0.048  0.381
     SPIN  2
     eigenvalues:
       0.084  0.091  0.101  0.218  0.225
     eigenvectors (columns):
       0.928 -0.084  0.161 -0.280  0.166
      -0.225 -0.235  0.720 -0.483 -0.376
       0.267  0.459 -0.009  0.265 -0.805
       0.122 -0.845 -0.129  0.401 -0.308
      -0.046 -0.118 -0.662 -0.676 -0.298
     occupation matrix ns (before diag.):
       0.099  0.011 -0.029 -0.022  0.017
       0.011  0.144  0.025 -0.010  0.052
      -0.029  0.025  0.186  0.046  0.009
      -0.022 -0.010  0.046  0.124 -0.021
       0.017  0.052  0.009 -0.021  0.165
     ------------------------ ATOM    2 ------------------------
     Tr[ns(  2)] (up, down, total) =   3.78331  0.94544  4.72875
     Atomic magnetic moment for atom   2 =   2.83787
     SPIN  1
     eigenvalues:
       0.380  0.427  0.991  0.993  0.993
     eigenvectors (columns):
       0.283 -0.280 -0.414 -0.034 -0.818
       0.275  0.865 -0.057 -0.386 -0.155
       0.461 -0.259  0.778 -0.314 -0.132
       0.795 -0.055 -0.290  0.314  0.428
       0.013  0.322  0.370  0.808 -0.326
     occupation matrix ns (before diag.):
       0.899  0.089 -0.120 -0.147  0.049
       0.089  0.523  0.049 -0.107 -0.160
      -0.120  0.049  0.824 -0.232  0.043
      -0.147 -0.107 -0.232  0.604  0.004
       0.049 -0.160  0.043  0.004  0.934
     SPIN  2
     eigenvalues:
       0.117  0.131  0.152  0.260  0.287
     eigenvectors (columns):
       0.809  0.483 -0.147 -0.195  0.228
       0.282 -0.248 -0.305 -0.210 -0.850
      -0.378  0.098 -0.739 -0.497  0.234
      -0.018 -0.151  0.553 -0.818  0.042
      -0.350  0.820  0.184 -0.040 -0.411
     occupation matrix ns (before diag.):
       0.135 -0.027  0.027  0.021 -0.010
      -0.027  0.250 -0.011  0.013  0.056
       0.027 -0.011  0.181  0.045 -0.017
       0.021  0.013  0.045  0.224  0.004
      -0.010  0.056 -0.017  0.004  0.156

     Number of occupied Hubbard levels =    7.4788

     negative rho (up, down):  0.000E+00 5.935E-03

     HUBBARD ENERGY =    0.3107  (Ry)

     total cpu time spent up to now is      730.5 secs

     total energy              =   -1064.85873418 Ry
     estimated scf accuracy    <       9.04515373 Ry

     total magnetization       =     5.30 Bohr mag/cell
     absolute magnetization    =     6.02 Bohr mag/cell
[tb_dev] Currently allocated     0.00E+00 Mbytes, locked:    0 /   0
[tb_pin] Currently allocated     0.00E+00 Mbytes, locked:    0 /   0

     iteration #  5     ecut=    50.00 Ry     beta= 0.70
     CG style diagonalization

---- Real-time Memory Report at c_bands before calling an iterative solver
          5980 MiB given to the printing process from OS
             0 MiB allocation reported by mallinfo(arena+hblkhd)
        407942 MiB available memory on the node where the printing process lives
     GPU memory used/free/total (MiB): 2604 / 62340 / 64944
------------------
     ethr =  3.85E-03,  avg # of iterations =  3.0

     =================== HUBBARD OCCUPATIONS ===================
     ------------------------ ATOM    1 ------------------------
     Tr[ns(  1)] (up, down, total) =   2.74519  0.78387  3.52907
     Atomic magnetic moment for atom   1 =   1.96132
     SPIN  1
     eigenvalues:
       0.319  0.332  0.558  0.697  0.839
     eigenvectors (columns):
       0.137  0.424 -0.099  0.011 -0.890
       0.488 -0.021  0.863 -0.127 -0.033
       0.459 -0.740 -0.236  0.350 -0.252
      -0.185 -0.425 -0.040 -0.853 -0.237
       0.706  0.303 -0.434 -0.366  0.297
     occupation matrix ns (before diag.):
       0.735 -0.006  0.119  0.105 -0.127
      -0.006  0.503 -0.061  0.037 -0.077
       0.119 -0.061  0.419 -0.076 -0.066
       0.105  0.037 -0.076  0.626  0.084
      -0.127 -0.077 -0.066  0.084  0.462
     SPIN  2
     eigenvalues:
       0.092  0.109  0.117  0.230  0.236
     eigenvectors (columns):
      -0.934 -0.065  0.121 -0.001  0.329
      -0.034  0.496 -0.604  0.582  0.223
      -0.208 -0.464 -0.076  0.555 -0.654
      -0.159  0.724  0.467  0.043 -0.480
       0.239 -0.105  0.630  0.593  0.428
     occupation matrix ns (before diag.):
       0.108  0.008 -0.031 -0.022  0.022
       0.008  0.159  0.021 -0.013  0.051
      -0.031  0.021  0.200  0.042  0.005
      -0.022 -0.013  0.042  0.140 -0.020
       0.022  0.051  0.005 -0.020  0.177
     ------------------------ ATOM    2 ------------------------
     Tr[ns(  2)] (up, down, total) =   1.67774  0.63119  2.30893
     Atomic magnetic moment for atom   2 =   1.04655
     SPIN  1
     eigenvalues:
       0.258  0.271  0.329  0.383  0.437
     eigenvectors (columns):
      -0.262  0.463  0.183 -0.217 -0.798
      -0.502 -0.757  0.329  0.118 -0.231
      -0.166  0.320  0.817 -0.063  0.445
      -0.807  0.263 -0.429  0.049  0.306
      -0.033 -0.204 -0.076 -0.966  0.137
     occupation matrix ns (before diag.):
       0.383  0.030 -0.049 -0.049  0.004
       0.030  0.284 -0.003 -0.024 -0.020
      -0.049 -0.003  0.343  0.000  0.013
      -0.049 -0.024  0.000  0.289  0.003
       0.004 -0.020  0.013  0.003  0.379
     SPIN  2
     eigenvalues:
       0.068  0.079  0.084  0.198  0.203
     eigenvectors (columns):
       0.931 -0.022 -0.104  0.020 -0.350
       0.198 -0.160  0.371 -0.809  0.379
      -0.120  0.607  0.560 -0.142 -0.532
      -0.281 -0.343 -0.411 -0.485 -0.632
       0.041  0.698 -0.607 -0.300  0.228
     occupation matrix ns (before diag.):
       0.084 -0.021  0.024  0.029 -0.011
      -0.021  0.175 -0.010  0.017  0.038
       0.024 -0.010  0.118  0.048 -0.012
       0.029  0.017  0.048  0.156  0.001
      -0.011  0.038 -0.012  0.001  0.098

     Number of occupied Hubbard levels =    5.8380

     negative rho (up, down):  0.000E+00 6.157E-03

     HUBBARD ENERGY =    0.3419  (Ry)

     total cpu time spent up to now is      857.2 secs

     total energy              =   -1065.14272798 Ry
     estimated scf accuracy    <       2.87703374 Ry

     total magnetization       =     2.59 Bohr mag/cell
     absolute magnetization    =     5.01 Bohr mag/cell
[tb_dev] Currently allocated     0.00E+00 Mbytes, locked:    0 /   0
[tb_pin] Currently allocated     0.00E+00 Mbytes, locked:    0 /   0

     iteration #  6     ecut=    50.00 Ry     beta= 0.70
     CG style diagonalization

---- Real-time Memory Report at c_bands before calling an iterative solver
          5987 MiB given to the printing process from OS
             0 MiB allocation reported by mallinfo(arena+hblkhd)
        373081 MiB available memory on the node where the printing process lives
     GPU memory used/free/total (MiB): 2604 / 62340 / 64944
------------------
     ethr =  2.00E-03,  avg # of iterations =  3.0

     =================== HUBBARD OCCUPATIONS ===================
     ------------------------ ATOM    1 ------------------------
     Tr[ns(  1)] (up, down, total) =   3.08858  0.87127  3.95985
     Atomic magnetic moment for atom   1 =   2.21731
     SPIN  1
     eigenvalues:
       0.346  0.362  0.689  0.759  0.932
     eigenvectors (columns):
       0.011  0.439 -0.227  0.092 -0.864
       0.496  0.144  0.831 -0.136 -0.154
       0.654 -0.573 -0.261  0.382 -0.174
      -0.039 -0.465 -0.087 -0.827 -0.302
       0.570  0.492 -0.426 -0.379  0.329
     occupation matrix ns (before diag.):
       0.808  0.009  0.119  0.125 -0.144
       0.009  0.605 -0.082  0.048 -0.129
       0.119 -0.082  0.453 -0.088 -0.060
       0.125  0.048 -0.088  0.688  0.080
      -0.144 -0.129 -0.060  0.080  0.535
     SPIN  2
     eigenvalues:
       0.101  0.128  0.141  0.244  0.257
     eigenvectors (columns):
      -0.935 -0.123  0.059 -0.088  0.317
      -0.034  0.699 -0.344  0.503  0.374
      -0.196 -0.393 -0.272  0.706 -0.484
      -0.181  0.456  0.729  0.181 -0.442
       0.233 -0.367  0.523  0.455  0.575
     occupation matrix ns (before diag.):
       0.119  0.009 -0.032 -0.024  0.025
       0.009  0.177  0.019 -0.014  0.052
      -0.032  0.019  0.216  0.039  0.001
      -0.024 -0.014  0.039  0.163 -0.017
       0.025  0.052  0.001 -0.017  0.197
     ------------------------ ATOM    2 ------------------------
     Tr[ns(  2)] (up, down, total) =   3.76901  0.95769  4.72671
     Atomic magnetic moment for atom   2 =   2.81132
     SPIN  1
     eigenvalues:
       0.385  0.413  0.980  0.995  0.996
     eigenvectors (columns):
       0.215  0.337 -0.346 -0.716  0.456
       0.455 -0.785  0.253 -0.333  0.035
       0.390  0.346  0.656  0.266  0.476
       0.767  0.230 -0.329  0.206 -0.457
       0.085 -0.311 -0.526  0.513  0.596
     occupation matrix ns (before diag.):
       0.899  0.096 -0.116 -0.148  0.047
       0.096  0.509  0.048 -0.106 -0.164
      -0.116  0.048  0.826 -0.226  0.048
      -0.148 -0.106 -0.226  0.604 -0.001
       0.047 -0.164  0.048 -0.001  0.930
     SPIN  2
     eigenvalues:
       0.116  0.143  0.156  0.266  0.277
     eigenvectors (columns):
       0.941 -0.042 -0.133 -0.021 -0.307
       0.199 -0.106  0.408 -0.731  0.499
      -0.086  0.692  0.421 -0.247 -0.525
      -0.259 -0.453 -0.326 -0.564 -0.551
       0.006  0.551 -0.729 -0.295  0.278
     occupation matrix ns (before diag.):
       0.132 -0.024  0.024  0.031 -0.010
      -0.024  0.243 -0.010  0.013  0.041
       0.024 -0.010  0.190  0.053 -0.015
       0.031  0.013  0.053  0.222  0.003
      -0.010  0.041 -0.015  0.003  0.171

     Number of occupied Hubbard levels =    8.6866

     negative rho (up, down):  0.000E+00 6.272E-03

     HUBBARD ENERGY =    0.3475  (Ry)

     total cpu time spent up to now is      983.9 secs

     total energy              =   -1065.27163466 Ry
     estimated scf accuracy    <       2.03856212 Ry

     total magnetization       =     8.43 Bohr mag/cell
     absolute magnetization    =     9.24 Bohr mag/cell
[tb_dev] Currently allocated     0.00E+00 Mbytes, locked:    0 /   0
[tb_pin] Currently allocated     0.00E+00 Mbytes, locked:    0 /   0

     iteration #  7     ecut=    50.00 Ry     beta= 0.70
     CG style diagonalization

---- Real-time Memory Report at c_bands before calling an iterative solver
          5996 MiB given to the printing process from OS
             0 MiB allocation reported by mallinfo(arena+hblkhd)
        375632 MiB available memory on the node where the printing process lives
     GPU memory used/free/total (MiB): 2604 / 62340 / 64944
------------------
     ethr =  1.42E-03,  avg # of iterations =  3.0

     =================== HUBBARD OCCUPATIONS ===================
     ------------------------ ATOM    1 ------------------------
     Tr[ns(  1)] (up, down, total) =   2.37805  0.80385  3.18190
     Atomic magnetic moment for atom   1 =   1.57420
     SPIN  1
     eigenvalues:
       0.313  0.334  0.461  0.584  0.687
     eigenvectors (columns):
       0.338  0.328  0.032  0.203 -0.858
       0.389 -0.257 -0.864  0.180  0.065
       0.071 -0.875  0.216 -0.238 -0.355
      -0.389 -0.240  0.078  0.885 -0.033
       0.760 -0.056  0.448  0.293  0.365
     occupation matrix ns (before diag.):
       0.601 -0.017  0.096  0.058 -0.099
      -0.017  0.435 -0.043  0.034 -0.034
       0.096 -0.043  0.398 -0.046 -0.052
       0.058  0.034 -0.046  0.528  0.071
      -0.099 -0.034 -0.052  0.071  0.416
     SPIN  2
     eigenvalues:
       0.096  0.106  0.120  0.235  0.246
     eigenvectors (columns):
       0.907  0.240  0.128 -0.249  0.203
      -0.203  0.058  0.755 -0.542 -0.302
       0.345 -0.384 -0.105  0.150 -0.837
      -0.058  0.866  0.018  0.340 -0.362
      -0.118  0.205 -0.634 -0.711 -0.191
     occupation matrix ns (before diag.):
       0.112  0.012 -0.032 -0.021  0.017
       0.012  0.164  0.025 -0.008  0.051
      -0.032  0.025  0.206  0.049  0.010
      -0.021 -0.008  0.049  0.140 -0.022
       0.017  0.051  0.010 -0.022  0.182
     ------------------------ ATOM    2 ------------------------
     Tr[ns(  2)] (up, down, total) =   2.76688  0.80471  3.57159
     Atomic magnetic moment for atom   2 =   1.96216
     SPIN  1
     eigenvalues:
       0.318  0.333  0.592  0.715  0.809
     eigenvectors (columns):
       0.243  0.370 -0.029 -0.130  0.887
       0.451 -0.790  0.291  0.173  0.241
       0.306  0.330  0.803 -0.306 -0.241
       0.800  0.229 -0.441  0.132 -0.309
       0.063 -0.279 -0.272 -0.918 -0.044
     occupation matrix ns (before diag.):
       0.713  0.089 -0.093 -0.137  0.029
       0.089  0.391  0.011 -0.065 -0.087
      -0.093  0.011  0.562 -0.076  0.055
      -0.137 -0.065 -0.076  0.426 -0.009
       0.029 -0.087  0.055 -0.009  0.675
     SPIN  2
     eigenvalues:
       0.095  0.110  0.119  0.238  0.244
     eigenvectors (columns):
       0.942 -0.009 -0.090  0.011 -0.323
       0.182 -0.159  0.391 -0.793  0.401
      -0.129  0.621  0.517 -0.176 -0.547
      -0.248 -0.392 -0.408 -0.490 -0.615
       0.032  0.659 -0.637 -0.317  0.241
     occupation matrix ns (before diag.):
       0.110 -0.021  0.025  0.030 -0.011
      -0.021  0.212 -0.009  0.016  0.043
       0.025 -0.009  0.156  0.054 -0.013
       0.030  0.016  0.054  0.192  0.002
      -0.011  0.043 -0.013  0.002  0.134

     Number of occupied Hubbard levels =    6.7535

     negative rho (up, down):  0.000E+00 6.390E-03

     HUBBARD ENERGY =    0.3597  (Ry)

     total cpu time spent up to now is     1110.1 secs

     total energy              =   -1065.43660299 Ry
     estimated scf accuracy    <       0.82199903 Ry

     total magnetization       =     3.55 Bohr mag/cell
     absolute magnetization    =     5.66 Bohr mag/cell
[tb_dev] Currently allocated     0.00E+00 Mbytes, locked:    0 /   0
[tb_pin] Currently allocated     0.00E+00 Mbytes, locked:    0 /   0

     iteration #  8     ecut=    50.00 Ry     beta= 0.70
     CG style diagonalization

---- Real-time Memory Report at c_bands before calling an iterative solver
          6005 MiB given to the printing process from OS
             0 MiB allocation reported by mallinfo(arena+hblkhd)
        380541 MiB available memory on the node where the printing process lives
     GPU memory used/free/total (MiB): 2604 / 62340 / 64944
------------------
     ethr =  5.71E-04,  avg # of iterations =  3.0

     =================== HUBBARD OCCUPATIONS ===================
     ------------------------ ATOM    1 ------------------------
     Tr[ns(  1)] (up, down, total) =   3.21330  0.99971  4.21301
     Atomic magnetic moment for atom   1 =   2.21359
     SPIN  1
     eigenvalues:
       0.381  0.406  0.726  0.816  0.885
     eigenvectors (columns):
      -0.290  0.315 -0.028  0.274 -0.861
      -0.495 -0.217 -0.807  0.167  0.167
      -0.070 -0.875  0.147 -0.250 -0.382
       0.343 -0.295  0.065  0.888  0.057
      -0.740 -0.033  0.567  0.215  0.288
     occupation matrix ns (before diag.):
       0.789 -0.046  0.127  0.078 -0.105
      -0.046  0.633 -0.086  0.053 -0.118
       0.127 -0.086  0.508 -0.098 -0.049
       0.078  0.053 -0.098  0.729  0.104
      -0.105 -0.118 -0.049  0.104  0.554
     SPIN  2
     eigenvalues:
       0.126  0.145  0.164  0.276  0.289
     eigenvectors (columns):
      -0.949  0.115 -0.029 -0.227  0.186
       0.124  0.158 -0.739 -0.576 -0.286
      -0.256 -0.470  0.068  0.141 -0.830
      -0.053  0.853  0.088  0.311 -0.407
       0.129  0.116  0.663 -0.707 -0.171
     occupation matrix ns (before diag.):
       0.139  0.012 -0.031 -0.021  0.018
       0.012  0.210  0.023 -0.008  0.050
      -0.031  0.023  0.246  0.054  0.009
      -0.021 -0.008  0.054  0.182 -0.017
       0.018  0.050  0.009 -0.017  0.223
     ------------------------ ATOM    2 ------------------------
     Tr[ns(  2)] (up, down, total) =   2.95148  0.79397  3.74545
     Atomic magnetic moment for atom   2 =   2.15751
     SPIN  1
     eigenvalues:
       0.311  0.328  0.632  0.788  0.892
     eigenvectors (columns):
       0.259  0.331  0.089  0.234 -0.872
       0.367 -0.832  0.334 -0.133 -0.208
       0.379  0.309  0.719  0.309  0.386
       0.808  0.141 -0.501 -0.201  0.188
       0.038 -0.287 -0.336  0.890  0.106
     occupation matrix ns (before diag.):
       0.784  0.096 -0.139 -0.131  0.034
       0.096  0.392  0.006 -0.066 -0.101
      -0.139  0.006  0.610 -0.102  0.076
      -0.131 -0.066 -0.102  0.432 -0.020
       0.034 -0.101  0.076 -0.020  0.733
     SPIN  2
     eigenvalues:
       0.094  0.105  0.115  0.237  0.243
     eigenvectors (columns):
       0.932  0.161  0.009 -0.173 -0.274
       0.191 -0.246  0.347 -0.418  0.780
      -0.263  0.401  0.665 -0.455 -0.348
      -0.153 -0.274 -0.528 -0.758 -0.220
      -0.048  0.823 -0.398 -0.122  0.383
     occupation matrix ns (before diag.):
       0.110 -0.022  0.026  0.027 -0.011
      -0.022  0.213 -0.009  0.017  0.047
       0.026 -0.009  0.153  0.052 -0.014
       0.027  0.017  0.052  0.190  0.003
      -0.011  0.047 -0.014  0.003  0.129

     Number of occupied Hubbard levels =    7.9585

     negative rho (up, down):  0.000E+00 6.473E-03

     HUBBARD ENERGY =    0.3655  (Ry)

     total cpu time spent up to now is     1237.3 secs

     total energy              =   -1065.42748646 Ry
     estimated scf accuracy    <       1.09039261 Ry

     total magnetization       =     5.78 Bohr mag/cell
     absolute magnetization    =     7.10 Bohr mag/cell
[tb_dev] Currently allocated     0.00E+00 Mbytes, locked:    0 /   0
[tb_pin] Currently allocated     0.00E+00 Mbytes, locked:    0 /   0

     iteration #  9     ecut=    50.00 Ry     beta= 0.70
     CG style diagonalization

---- Real-time Memory Report at c_bands before calling an iterative solver
          6020 MiB given to the printing process from OS
             0 MiB allocation reported by mallinfo(arena+hblkhd)
        383739 MiB available memory on the node where the printing process lives
     GPU memory used/free/total (MiB): 2604 / 62340 / 64944
------------------
     ethr =  5.71E-04,  avg # of iterations =  3.0

     =================== HUBBARD OCCUPATIONS ===================
     ------------------------ ATOM    1 ------------------------
     Tr[ns(  1)] (up, down, total) =   3.05274  0.97054  4.02328
     Atomic magnetic moment for atom   1 =   2.08220
     SPIN  1
     eigenvalues:
       0.359  0.377  0.648  0.786  0.883
     eigenvectors (columns):
       0.245  0.350  0.058 -0.228  0.873
       0.504 -0.162  0.807 -0.190 -0.180
       0.162 -0.863 -0.127  0.264  0.378
      -0.315 -0.323 -0.079 -0.889 -0.010
       0.749  0.045 -0.568 -0.228 -0.250
     occupation matrix ns (before diag.):
       0.783 -0.051  0.139  0.079 -0.101
      -0.051  0.580 -0.084  0.055 -0.090
       0.139 -0.084  0.482 -0.094 -0.055
       0.079  0.055 -0.094  0.700  0.101
      -0.101 -0.090 -0.055  0.101  0.507
     SPIN  2
     eigenvalues:
       0.123  0.138  0.157  0.268  0.284
     eigenvectors (columns):
      -0.901  0.311 -0.080 -0.203  0.210
       0.176  0.095 -0.742 -0.592 -0.242
      -0.356 -0.388  0.072  0.085 -0.843
       0.129  0.852  0.044  0.289 -0.414
       0.119  0.130  0.660 -0.719 -0.126
     occupation matrix ns (before diag.):
       0.138  0.012 -0.033 -0.019  0.016
       0.012  0.202  0.023 -0.009  0.050
      -0.033  0.023  0.241  0.055  0.009
      -0.019 -0.009  0.055  0.173 -0.019
       0.016  0.050  0.009 -0.019  0.216
     ------------------------ ATOM    2 ------------------------
     Tr[ns(  2)] (up, down, total) =   2.75996  0.80691  3.56687
     Atomic magnetic moment for atom   2 =   1.95305
     SPIN  1
     eigenvalues:
       0.313  0.342  0.575  0.715  0.814
     eigenvectors (columns):
       0.318  0.304  0.051  0.404 -0.800
       0.265 -0.877  0.306 -0.078 -0.247
       0.397  0.255  0.761  0.194  0.401
       0.819  0.040 -0.490 -0.218  0.200
      -0.007 -0.269 -0.291  0.863  0.312
     occupation matrix ns (before diag.):
       0.703  0.083 -0.117 -0.122  0.009
       0.083  0.393 -0.001 -0.058 -0.082
      -0.117 -0.001  0.562 -0.074  0.070
      -0.122 -0.058 -0.074  0.415 -0.007
       0.009 -0.082  0.070 -0.007  0.686
     SPIN  2
     eigenvalues:
       0.093  0.106  0.118  0.241  0.249
     eigenvectors (columns):
       0.929  0.162  0.086 -0.234 -0.220
       0.154 -0.282  0.337 -0.257  0.847
      -0.312  0.367  0.668 -0.512 -0.242
      -0.122 -0.245 -0.551 -0.784 -0.078
      -0.027  0.836 -0.358 -0.046  0.412
     occupation matrix ns (before diag.):
       0.109 -0.020  0.028  0.028 -0.012
      -0.020  0.219 -0.008  0.016  0.050
       0.028 -0.008  0.154  0.052 -0.014
       0.028  0.016  0.052  0.193  0.003
      -0.012  0.050 -0.014  0.003  0.132

     Number of occupied Hubbard levels =    7.5902

     negative rho (up, down):  0.000E+00 6.569E-03

     HUBBARD ENERGY =    0.3695  (Ry)

     total cpu time spent up to now is     1363.8 secs

     total energy              =   -1065.49274160 Ry
     estimated scf accuracy    <       0.85558236 Ry

     total magnetization       =     5.04 Bohr mag/cell
     absolute magnetization    =     6.73 Bohr mag/cell
[tb_dev] Currently allocated     0.00E+00 Mbytes, locked:    0 /   0
[tb_pin] Currently allocated     0.00E+00 Mbytes, locked:    0 /   0

     iteration # 10     ecut=    50.00 Ry     beta= 0.70
     CG style diagonalization

---- Real-time Memory Report at c_bands before calling an iterative solver
          6028 MiB given to the printing process from OS
             0 MiB allocation reported by mallinfo(arena+hblkhd)
        376844 MiB available memory on the node where the printing process lives
     GPU memory used/free/total (MiB): 2604 / 62340 / 64944
------------------
     ethr =  5.71E-04,  avg # of iterations =  3.0

     =================== HUBBARD OCCUPATIONS ===================
     ------------------------ ATOM    1 ------------------------
     Tr[ns(  1)] (up, down, total) =   2.67676  0.92302  3.59978
     Atomic magnetic moment for atom   1 =   1.75374
     SPIN  1
     eigenvalues:
       0.336  0.357  0.529  0.670  0.785
     eigenvectors (columns):
       0.285  0.356  0.005  0.238 -0.857
       0.440 -0.205 -0.850  0.176  0.105
       0.151 -0.865  0.193 -0.232 -0.372
      -0.348 -0.287  0.074  0.889  0.012
       0.762  0.025  0.485  0.261  0.339
     occupation matrix ns (before diag.):
       0.687 -0.029  0.118  0.064 -0.109
      -0.029  0.492 -0.059  0.042 -0.048
       0.118 -0.059  0.439 -0.063 -0.059
       0.064  0.042 -0.063  0.603  0.086
      -0.109 -0.048 -0.059  0.086  0.456
     SPIN  2
     eigenvalues:
       0.114  0.128  0.147  0.260  0.274
     eigenvectors (columns):
       0.924  0.239  0.027 -0.195  0.225
      -0.135  0.146  0.749 -0.597 -0.206
       0.321 -0.416 -0.075  0.024 -0.847
      -0.058  0.857 -0.081  0.269 -0.428
      -0.147  0.119 -0.652 -0.730 -0.077
     occupation matrix ns (before diag.):
       0.128  0.011 -0.033 -0.020  0.018
       0.011  0.192  0.023 -0.010  0.050
      -0.033  0.023  0.231  0.054  0.009
      -0.020 -0.010  0.054  0.165 -0.020
       0.018  0.050  0.009 -0.020  0.207
     ------------------------ ATOM    2 ------------------------
     Tr[ns(  2)] (up, down, total) =   2.82285  0.88820  3.71105
     Atomic magnetic moment for atom   2 =   1.93465
     SPIN  1
     eigenvalues:
       0.331  0.359  0.592  0.726  0.815
     eigenvectors (columns):
       0.304  0.320  0.073  0.417 -0.791
       0.287 -0.869  0.317 -0.057 -0.242
       0.381  0.269  0.750  0.194  0.426
       0.825  0.059 -0.486 -0.218  0.180
      -0.005 -0.259 -0.307  0.859  0.318
     occupation matrix ns (before diag.):
       0.707  0.081 -0.115 -0.114  0.012
       0.081  0.408  0.001 -0.058 -0.076
      -0.115  0.001  0.583 -0.075  0.069
      -0.114 -0.058 -0.075  0.427 -0.008
       0.012 -0.076  0.069 -0.008  0.698
     SPIN  2
     eigenvalues:
       0.106  0.119  0.137  0.257  0.269
     eigenvectors (columns):
       0.914  0.248  0.109 -0.220  0.206
       0.176 -0.290  0.334 -0.225 -0.850
      -0.344  0.311  0.670 -0.533  0.227
      -0.069 -0.235 -0.567 -0.785  0.050
      -0.101  0.838 -0.324 -0.035 -0.425
     occupation matrix ns (before diag.):
       0.122 -0.021  0.028  0.025 -0.012
      -0.021  0.236 -0.008  0.015  0.054
       0.028 -0.008  0.172  0.052 -0.016
       0.025  0.015  0.052  0.210  0.004
      -0.012  0.054 -0.016  0.004  0.148

     Number of occupied Hubbard levels =    7.3108

     negative rho (up, down):  0.000E+00 6.496E-03

     HUBBARD ENERGY =    0.3687  (Ry)

     total cpu time spent up to now is     1490.3 secs

     total energy              =   -1065.52232231 Ry
     estimated scf accuracy    <       0.28133270 Ry

     total magnetization       =     3.70 Bohr mag/cell
     absolute magnetization    =     5.82 Bohr mag/cell
[tb_dev] Currently allocated     0.00E+00 Mbytes, locked:    0 /   0
[tb_pin] Currently allocated     0.00E+00 Mbytes, locked:    0 /   0

     iteration # 11     ecut=    50.00 Ry     beta= 0.70
     CG style diagonalization

---- Real-time Memory Report at c_bands before calling an iterative solver
          6033 MiB given to the printing process from OS
             0 MiB allocation reported by mallinfo(arena+hblkhd)
        368573 MiB available memory on the node where the printing process lives
     GPU memory used/free/total (MiB): 2604 / 62340 / 64944
------------------
     ethr =  1.95E-04,  avg # of iterations =  3.0

     =================== HUBBARD OCCUPATIONS ===================
     ------------------------ ATOM    1 ------------------------
     Tr[ns(  1)] (up, down, total) =   2.89064  0.94691  3.83755
     Atomic magnetic moment for atom   1 =   1.94373
     SPIN  1
     eigenvalues:
       0.345  0.369  0.592  0.743  0.842
     eigenvectors (columns):
       0.289  0.332 -0.040  0.311 -0.841
       0.471 -0.216 -0.826  0.144  0.169
       0.089 -0.875  0.162 -0.205 -0.398
      -0.351 -0.279  0.047  0.888  0.095
       0.751 -0.019  0.536  0.229  0.309
     occupation matrix ns (before diag.):
       0.738 -0.046  0.133  0.067 -0.106
      -0.046  0.537 -0.074  0.051 -0.070
       0.133 -0.074  0.465 -0.084 -0.058
       0.067  0.051 -0.084  0.666  0.102
      -0.106 -0.070 -0.058  0.102  0.485
     SPIN  2
     eigenvalues:
       0.118  0.131  0.153  0.264  0.281
     eigenvectors (columns):
      -0.898  0.318 -0.086 -0.210  0.204
       0.174  0.072 -0.753 -0.576 -0.258
      -0.359 -0.384  0.091  0.101 -0.840
       0.136  0.850  0.020  0.304 -0.408
       0.129  0.154  0.646 -0.722 -0.143
     occupation matrix ns (before diag.):
       0.132  0.012 -0.033 -0.019  0.016
       0.012  0.197  0.024 -0.008  0.050
      -0.033  0.024  0.237  0.056  0.010
      -0.019 -0.008  0.056  0.168 -0.020
       0.016  0.050  0.010 -0.020  0.212
     ------------------------ ATOM    2 ------------------------
     Tr[ns(  2)] (up, down, total) =   2.75780  0.87121  3.62902
     Atomic magnetic moment for atom   2 =   1.88659
     SPIN  1
     eigenvalues:
       0.327  0.351  0.568  0.710  0.802
     eigenvectors (columns):
       0.292  0.339  0.036  0.314 -0.837
       0.335 -0.850  0.307 -0.091 -0.249
       0.343  0.287  0.782  0.242  0.360
       0.827  0.111 -0.456 -0.192  0.242
       0.016 -0.260 -0.291  0.893  0.224
     occupation matrix ns (before diag.):
       0.701  0.084 -0.105 -0.122  0.014
       0.084  0.400  0.001 -0.058 -0.074
      -0.105  0.001  0.560 -0.061  0.064
      -0.122 -0.058 -0.061  0.419 -0.009
       0.014 -0.074  0.064 -0.009  0.678
     SPIN  2
     eigenvalues:
       0.103  0.119  0.133  0.254  0.262
     eigenvectors (columns):
       0.937  0.163  0.018 -0.175 -0.253
       0.172 -0.251  0.358 -0.408  0.783
      -0.266  0.433  0.639 -0.468 -0.338
      -0.138 -0.302 -0.522 -0.754 -0.221
      -0.045  0.795 -0.437 -0.125  0.400
     occupation matrix ns (before diag.):
       0.118 -0.021  0.027  0.028 -0.011
      -0.021  0.231 -0.008  0.014  0.050
       0.027 -0.008  0.170  0.053 -0.016
       0.028  0.014  0.053  0.206  0.003
      -0.011  0.050 -0.016  0.003  0.146

     Number of occupied Hubbard levels =    7.4666

     negative rho (up, down):  0.000E+00 6.431E-03

     HUBBARD ENERGY =    0.3744  (Ry)

     total cpu time spent up to now is     1619.3 secs

     total energy              =   -1065.52269272 Ry
     estimated scf accuracy    <       0.23533630 Ry

     total magnetization       =     4.18 Bohr mag/cell
     absolute magnetization    =     6.03 Bohr mag/cell
[tb_dev] Currently allocated     0.00E+00 Mbytes, locked:    0 /   0
[tb_pin] Currently allocated     0.00E+00 Mbytes, locked:    0 /   0

     iteration # 12     ecut=    50.00 Ry     beta= 0.70
     CG style diagonalization

---- Real-time Memory Report at c_bands before calling an iterative solver
          6033 MiB given to the printing process from OS
             0 MiB allocation reported by mallinfo(arena+hblkhd)
        367693 MiB available memory on the node where the printing process lives
[...]
      -0.205 -0.310 -0.316 -0.315  0.814
       0.310  0.277 -0.690 -0.519 -0.286
       0.075 -0.225  0.579 -0.768 -0.139
       0.151  0.835  0.290 -0.089  0.434
     occupation matrix ns (before diag.):
       0.140 -0.023  0.030  0.024 -0.011
      -0.023  0.264 -0.005  0.010  0.057
       0.030 -0.005  0.209  0.047 -0.021
       0.024  0.010  0.047  0.241  0.006
      -0.011  0.057 -0.021  0.006  0.176

     Number of occupied Hubbard levels =    7.9480

     negative rho (up, down):  5.271E-05 5.848E-03

     HUBBARD ENERGY =    0.3907  (Ry)

     total cpu time spent up to now is    39368.9 secs

     total energy              =   -1065.53359215 Ry
     estimated scf accuracy    <       0.00011557 Ry

     total magnetization       =     4.35 Bohr mag/cell
     absolute magnetization    =     5.88 Bohr mag/cell
[tb_dev] Currently allocated     0.00E+00 Mbytes, locked:    0 /   0
[tb_pin] Currently allocated     0.00E+00 Mbytes, locked:    0 /   0

     iteration #247     ecut=    50.00 Ry     beta= 0.70
     CG style diagonalization

---- Real-time Memory Report at c_bands before calling an iterative solver
          6034 MiB given to the printing process from OS
             0 MiB allocation reported by mallinfo(arena+hblkhd)
        404499 MiB available memory on the node where the printing process lives
     GPU memory used/free/total (MiB): 2604 / 62340 / 64944
------------------
     ethr =  8.03E-08,  avg # of iterations =  3.3

     =================== HUBBARD OCCUPATIONS ===================
     ------------------------ ATOM    1 ------------------------
     Tr[ns(  1)] (up, down, total) =   2.92782  1.02698  3.95481
     Atomic magnetic moment for atom   1 =   1.90084
     SPIN  1
     eigenvalues:
       0.349  0.378  0.542  0.773  0.886
     eigenvectors (columns):
       0.262  0.324 -0.125  0.270 -0.859
       0.460 -0.205 -0.838  0.054  0.201
       0.108 -0.882  0.171 -0.185 -0.383
      -0.347 -0.273 -0.047  0.892  0.079
       0.766  0.013  0.500  0.306  0.262
     occupation matrix ns (before diag.):
       0.783 -0.069  0.143  0.065 -0.098
      -0.069  0.509 -0.068  0.038 -0.046
       0.143 -0.068  0.471 -0.081 -0.062
       0.065  0.038 -0.081  0.693  0.122
      -0.098 -0.046 -0.062  0.122  0.473
     SPIN  2
     eigenvalues:
       0.124  0.143  0.179  0.282  0.300
     eigenvectors (columns):
       0.914  0.279  0.073 -0.185  0.218
      -0.154  0.056  0.754 -0.606 -0.196
       0.337 -0.409 -0.107  0.015 -0.841
      -0.101  0.850  0.006  0.256 -0.450
      -0.133  0.172 -0.644 -0.730 -0.068
     occupation matrix ns (before diag.):
       0.139  0.014 -0.035 -0.020  0.017
       0.014  0.220  0.023 -0.008  0.046
      -0.035  0.023  0.252  0.060  0.011
      -0.020 -0.008  0.060  0.183 -0.022
       0.017  0.046  0.011 -0.022  0.232
     ------------------------ ATOM    2 ------------------------
     Tr[ns(  2)] (up, down, total) =   2.96280  1.03149  3.99430
     Atomic magnetic moment for atom   2 =   1.93131
     SPIN  1
     eigenvalues:
       0.350  0.380  0.555  0.785  0.893
     eigenvectors (columns):
       0.261  0.327  0.114  0.283 -0.856
       0.345 -0.853  0.303 -0.118 -0.219
       0.338  0.298  0.791  0.169  0.378
       0.835  0.138 -0.474 -0.137  0.199
       0.026 -0.242 -0.210  0.927  0.194
     occupation matrix ns (before diag.):
       0.788  0.086 -0.133 -0.119  0.017
       0.086  0.423 -0.012 -0.049 -0.078
      -0.133 -0.012  0.571 -0.045  0.072
      -0.119 -0.049 -0.045  0.426 -0.015
       0.017 -0.078  0.072 -0.015  0.755
     SPIN  2
     eigenvalues:
       0.124  0.143  0.180  0.283  0.301
     eigenvectors (columns):
      -0.912  0.287 -0.063 -0.180 -0.221
      -0.207 -0.307 -0.317 -0.324  0.811
       0.308  0.279 -0.690 -0.516 -0.291
       0.076 -0.227  0.578 -0.766 -0.147
       0.156  0.833  0.293 -0.093  0.433
     occupation matrix ns (before diag.):
       0.140 -0.023  0.030  0.024 -0.011
      -0.023  0.264 -0.005  0.010  0.057
       0.030 -0.005  0.209  0.047 -0.021
       0.024  0.010  0.047  0.241  0.006
      -0.011  0.057 -0.021  0.006  0.177

     Number of occupied Hubbard levels =    7.9491

     negative rho (up, down):  5.322E-05 5.848E-03

     HUBBARD ENERGY =    0.3906  (Ry)

     total cpu time spent up to now is    39513.9 secs

     total energy              =   -1065.53349856 Ry
     estimated scf accuracy    <       0.00158709 Ry

     total magnetization       =     4.35 Bohr mag/cell
     absolute magnetization    =     5.88 Bohr mag/cell
[tb_dev] Currently allocated     0.00E+00 Mbytes, locked:    0 /   0
[tb_pin] Currently allocated     0.00E+00 Mbytes, locked:    0 /   0

     iteration #248     ecut=    50.00 Ry     beta= 0.70
     CG style diagonalization

---- Real-time Memory Report at c_bands before calling an iterative solver
          6034 MiB given to the printing process from OS
             0 MiB allocation reported by mallinfo(arena+hblkhd)
        405538 MiB available memory on the node where the printing process lives
     GPU memory used/free/total (MiB): 2604 / 62340 / 64944
------------------
     ethr =  8.03E-08,  avg # of iterations =  3.2

     =================== HUBBARD OCCUPATIONS ===================
     ------------------------ ATOM    1 ------------------------
     Tr[ns(  1)] (up, down, total) =   2.94608  1.03283  3.97891
     Atomic magnetic moment for atom   1 =   1.91326
     SPIN  1
     eigenvalues:
       0.350  0.379  0.546  0.779  0.891
     eigenvectors (columns):
       0.261  0.323 -0.126  0.269 -0.860
       0.463 -0.205 -0.836  0.054  0.203
       0.106 -0.882  0.170 -0.186 -0.383
      -0.347 -0.273 -0.048  0.893  0.078
       0.766  0.012  0.503  0.306  0.258
     occupation matrix ns (before diag.):
       0.787 -0.069  0.144  0.065 -0.097
      -0.069  0.512 -0.069  0.039 -0.047
       0.144 -0.069  0.473 -0.082 -0.062
       0.065  0.039 -0.082  0.698  0.123
      -0.097 -0.047 -0.062  0.123  0.476
     SPIN  2
     eigenvalues:
       0.124  0.144  0.180  0.283  0.301
     eigenvectors (columns):
       0.913  0.281  0.075 -0.186  0.217
      -0.154  0.052  0.753 -0.605 -0.199
       0.338 -0.408 -0.108  0.020 -0.841
      -0.103  0.849  0.009  0.258 -0.449
      -0.132  0.174 -0.644 -0.730 -0.072
     occupation matrix ns (before diag.):
       0.140  0.014 -0.035 -0.020  0.017
       0.014  0.221  0.023 -0.008  0.046
      -0.035  0.023  0.253  0.061  0.011
      -0.020 -0.008  0.061  0.185 -0.022
       0.017  0.046  0.011 -0.022  0.234
     ------------------------ ATOM    2 ------------------------
     Tr[ns(  2)] (up, down, total) =   2.94327  1.02923  3.97250
     Atomic magnetic moment for atom   2 =   1.91404
     SPIN  1
     eigenvalues:
       0.350  0.379  0.549  0.778  0.888
     eigenvectors (columns):
       0.262  0.326  0.116  0.281 -0.856
       0.342 -0.854  0.303 -0.118 -0.219
       0.335  0.296  0.793  0.166  0.378
       0.838  0.135 -0.472 -0.133  0.200
       0.024 -0.241 -0.207  0.928  0.193
     occupation matrix ns (before diag.):
       0.784  0.085 -0.133 -0.118  0.016
       0.085  0.421 -0.012 -0.049 -0.076
      -0.133 -0.012  0.566 -0.042  0.071
      -0.118 -0.049 -0.042  0.423 -0.014
       0.016 -0.076  0.071 -0.014  0.749
     SPIN  2
     eigenvalues:
       0.124  0.143  0.179  0.283  0.300
     eigenvectors (columns):
      -0.913  0.284 -0.066 -0.182 -0.220
      -0.205 -0.309 -0.316 -0.318  0.813
       0.309  0.278 -0.690 -0.518 -0.287
       0.075 -0.226  0.578 -0.767 -0.141
       0.152  0.834  0.291 -0.091  0.433
     occupation matrix ns (before diag.):
       0.140 -0.023  0.030  0.024 -0.011
      -0.023  0.264 -0.005  0.010  0.057
       0.030 -0.005  0.209  0.047 -0.021
       0.024  0.010  0.047  0.240  0.006
      -0.011  0.057 -0.021  0.006  0.176

     Number of occupied Hubbard levels =    7.9514

     negative rho (up, down):  5.333E-05 5.846E-03

     HUBBARD ENERGY =    0.3905  (Ry)

     total cpu time spent up to now is    39656.2 secs

     total energy              =   -1065.53350430 Ry
     estimated scf accuracy    <       0.00017593 Ry

     total magnetization       =     4.35 Bohr mag/cell
     absolute magnetization    =     5.88 Bohr mag/cell
[tb_dev] Currently allocated     0.00E+00 Mbytes, locked:    0 /   0
[tb_pin] Currently allocated     0.00E+00 Mbytes, locked:    0 /   0

     iteration #249     ecut=    50.00 Ry     beta= 0.70
     CG style diagonalization

---- Real-time Memory Report at c_bands before calling an iterative solver
          6034 MiB given to the printing process from OS
             0 MiB allocation reported by mallinfo(arena+hblkhd)
        404103 MiB available memory on the node where the printing process lives
     GPU memory used/free/total (MiB): 2604 / 62340 / 64944
------------------
     ethr =  8.03E-08,  avg # of iterations =  3.0

     =================== HUBBARD OCCUPATIONS ===================
     ------------------------ ATOM    1 ------------------------
     Tr[ns(  1)] (up, down, total) =   2.94151  1.03337  3.97488
     Atomic magnetic moment for atom   1 =   1.90814
     SPIN  1
     eigenvalues:
       0.350  0.379  0.542  0.779  0.892
     eigenvectors (columns):
       0.259  0.324 -0.131  0.262 -0.862
       0.462 -0.203 -0.837  0.054  0.206
       0.108 -0.883  0.168 -0.188 -0.382
      -0.346 -0.273 -0.049  0.893  0.072
       0.767  0.013  0.502  0.309  0.253
     occupation matrix ns (before diag.):
       0.788 -0.071  0.145  0.065 -0.096
      -0.071  0.510 -0.069  0.038 -0.045
       0.145 -0.069  0.472 -0.082 -0.062
       0.065  0.038 -0.082  0.697  0.123
      -0.096 -0.045 -0.062  0.123  0.474
     SPIN  2
     eigenvalues:
       0.124  0.144  0.181  0.284  0.301
     eigenvectors (columns):
       0.914  0.277  0.078 -0.186  0.216
      -0.156  0.052  0.753 -0.605 -0.201
       0.337 -0.410 -0.108  0.022 -0.840
      -0.099  0.850  0.009  0.259 -0.449
      -0.129  0.175 -0.644 -0.729 -0.074
     occupation matrix ns (before diag.):
       0.140  0.014 -0.035 -0.020  0.017
       0.014  0.222  0.023 -0.008  0.046
      -0.035  0.023  0.253  0.061  0.011
      -0.020 -0.008  0.061  0.185 -0.022
       0.017  0.046  0.011 -0.022  0.234
     ------------------------ ATOM    2 ------------------------
     Tr[ns(  2)] (up, down, total) =   2.94360  1.02908  3.97269
     Atomic magnetic moment for atom   2 =   1.91452
     SPIN  1
     eigenvalues:
       0.350  0.379  0.549  0.778  0.888
     eigenvectors (columns):
       0.262  0.326  0.115  0.286 -0.854
       0.341 -0.854  0.304 -0.116 -0.219
       0.336  0.296  0.792  0.169  0.379
       0.838  0.134 -0.471 -0.137  0.199
       0.025 -0.241 -0.212  0.926  0.197
     occupation matrix ns (before diag.):
       0.783  0.085 -0.133 -0.118  0.016
       0.085  0.421 -0.012 -0.049 -0.076
      -0.133 -0.012  0.567 -0.043  0.072
      -0.118 -0.049 -0.043  0.424 -0.014
       0.016 -0.076  0.072 -0.014  0.749
     SPIN  2
     eigenvalues:
       0.124  0.143  0.179  0.283  0.300
     eigenvectors (columns):
      -0.912  0.286 -0.066 -0.182 -0.220
      -0.206 -0.307 -0.317 -0.317  0.813
       0.310  0.279 -0.689 -0.519 -0.287
       0.074 -0.227  0.578 -0.767 -0.141
       0.154  0.833  0.294 -0.090  0.433
     occupation matrix ns (before diag.):
       0.140 -0.023  0.030  0.024 -0.011
      -0.023  0.264 -0.005  0.010  0.057
       0.030 -0.005  0.209  0.047 -0.021
       0.024  0.010  0.047  0.240  0.006
      -0.011  0.057 -0.021  0.006  0.176

     Number of occupied Hubbard levels =    7.9476

     negative rho (up, down):  5.358E-05 5.838E-03

     HUBBARD ENERGY =    0.3902  (Ry)

     total cpu time spent up to now is    39784.9 secs

     total energy              =   -1065.53336360 Ry
     estimated scf accuracy    <       0.00014065 Ry

     total magnetization       =     4.38 Bohr mag/cell
     absolute magnetization    =     5.89 Bohr mag/cell
[tb_dev] Currently allocated     0.00E+00 Mbytes, locked:    0 /   0
[tb_pin] Currently allocated     0.00E+00 Mbytes, locked:    0 /   0

     iteration #250     ecut=    50.00 Ry     beta= 0.70
     CG style diagonalization

---- Real-time Memory Report at c_bands before calling an iterative solver
          6034 MiB given to the printing process from OS
             0 MiB allocation reported by mallinfo(arena+hblkhd)
        414586 MiB available memory on the node where the printing process lives
     GPU memory used/free/total (MiB): 2604 / 62340 / 64944
------------------
     ethr =  8.03E-08,  avg # of iterations =  3.3

     =================== HUBBARD OCCUPATIONS ===================
     ------------------------ ATOM    1 ------------------------
     Tr[ns(  1)] (up, down, total) =   2.93705  1.03465  3.97170
     Atomic magnetic moment for atom   1 =   1.90240
     SPIN  1
     eigenvalues:
       0.350  0.378  0.534  0.779  0.897
     eigenvectors (columns):
       0.254  0.325 -0.139  0.251 -0.865
       0.461 -0.199 -0.837  0.053  0.210
       0.111 -0.883  0.163 -0.190 -0.381
      -0.345 -0.273 -0.053  0.894  0.064
       0.769  0.017  0.500  0.314  0.243
     occupation matrix ns (before diag.):
       0.792 -0.074  0.147  0.065 -0.094
      -0.074  0.505 -0.068  0.037 -0.042
       0.147 -0.068  0.472 -0.081 -0.062
       0.065  0.037 -0.081  0.697  0.124
      -0.094 -0.042 -0.062  0.124  0.471
     SPIN  2
     eigenvalues:
       0.124  0.144  0.182  0.284  0.301
     eigenvectors (columns):
       0.915  0.273  0.085 -0.188  0.215
      -0.160  0.048  0.752 -0.604 -0.205
       0.336 -0.412 -0.109  0.027 -0.840
      -0.096  0.849  0.012  0.261 -0.449
      -0.125  0.179 -0.644 -0.729 -0.077
     occupation matrix ns (before diag.):
       0.140  0.014 -0.036 -0.020  0.017
       0.014  0.222  0.023 -0.008  0.045
      -0.036  0.023  0.253  0.061  0.011
      -0.020 -0.008  0.061  0.185 -0.022
       0.017  0.045  0.011 -0.022  0.235
     ------------------------ ATOM    2 ------------------------
     Tr[ns(  2)] (up, down, total) =   2.93842  1.02705  3.96547
     Atomic magnetic moment for atom   2 =   1.91137
     SPIN  1
     eigenvalues:
       0.349  0.378  0.547  0.777  0.887
     eigenvectors (columns):
       0.262  0.327  0.115  0.290 -0.853
       0.341 -0.854  0.305 -0.113 -0.220
       0.335  0.295  0.791  0.171  0.381
       0.838  0.135 -0.470 -0.142  0.198
       0.026 -0.241 -0.218  0.924  0.201
     occupation matrix ns (before diag.):
       0.782  0.086 -0.133 -0.118  0.016
       0.086  0.420 -0.013 -0.048 -0.076
      -0.133 -0.013  0.566 -0.042  0.073
      -0.118 -0.048 -0.042  0.423 -0.015
       0.016 -0.076  0.073 -0.015  0.747
     SPIN  2
     eigenvalues:
       0.124  0.143  0.178  0.283  0.300
     eigenvectors (columns):
      -0.912  0.287  0.065 -0.182  0.220
      -0.206 -0.306  0.319 -0.317 -0.814
       0.311  0.281  0.688 -0.519  0.287
       0.074 -0.230 -0.577 -0.768  0.141
       0.155  0.832 -0.297 -0.090 -0.433
     occupation matrix ns (before diag.):
       0.139 -0.023  0.030  0.024 -0.011
      -0.023  0.264 -0.005  0.010  0.057
       0.030 -0.005  0.208  0.047 -0.021
       0.024  0.010  0.047  0.240  0.006
      -0.011  0.057 -0.021  0.006  0.176

     Number of occupied Hubbard levels =    7.9372

     negative rho (up, down):  5.370E-05 5.841E-03

     HUBBARD ENERGY =    0.3903  (Ry)

     total cpu time spent up to now is    39928.0 secs

     total energy              =   -1065.53345104 Ry
     estimated scf accuracy    <       0.00022045 Ry

     total magnetization       =     4.47 Bohr mag/cell
     absolute magnetization    =     5.91 Bohr mag/cell

     End of self-consistent calculation

     convergence NOT achieved after 250 iterations: stopping

     Writing config to output data dir ./out/aiida.save/ :
     XML data file, charge density
 
     init_run     :      8.95s CPU     10.91s WALL (       1 calls)
     electrons    :  38045.94s CPU  39916.42s WALL (       1 calls)

     Called by init_run:
     wfcinit      :      7.24s CPU      8.96s WALL (       1 calls)
     wfcinit:atom :      0.44s CPU      0.45s WALL (     304 calls)
     wfcinit:wfcr :      3.40s CPU      3.43s WALL (     304 calls)
     potinit      :      0.33s CPU      0.39s WALL (       1 calls)
     hinit0       :      0.97s CPU      1.02s WALL (       1 calls)

     Called by electrons:
     c_bands      :  36894.51s CPU  38691.44s WALL (     250 calls)
     sum_band     :   1072.21s CPU   1123.74s WALL (     250 calls)
     v_of_rho     :      4.42s CPU      6.23s WALL (     251 calls)
     v_h          :      1.49s CPU      1.72s WALL (     251 calls)
     v_xc         :      2.91s CPU      4.28s WALL (     251 calls)
     newd         :      6.15s CPU      7.57s WALL (     251 calls)
     PAW_pot      :     40.95s CPU     49.49s WALL (     251 calls)
     mix_rho      :     12.06s CPU     14.61s WALL (     250 calls)

     Called by c_bands:
     init_us_2    :     97.79s CPU    110.07s WALL (  152608 calls)
     ccgdiagg     :  35547.03s CPU  37132.16s WALL (   76000 calls)
     wfcrot       :    730.32s CPU    857.28s WALL (   76000 calls)
                                      857.23s GPU  (   76000 calls)

     Called by sum_band:
     sum_band:wei :      5.23s CPU      6.02s WALL (     250 calls)
     sum_band:loo :    641.22s CPU    676.48s WALL (     250 calls)
     sum_band:buf :    243.74s CPU    245.89s WALL (   76000 calls)
     sum_band:ini :     49.02s CPU     51.73s WALL (   76000 calls)
     sum_band:cal :      4.93s CPU     12.41s WALL (   76000 calls)
     sum_band:bec :     73.81s CPU     83.28s WALL (   76000 calls)
     addusdens    :     12.33s CPU     14.49s WALL (     250 calls)
                                       14.49s GPU  (     250 calls)
     addusd:skk   :      0.15s CPU      0.22s WALL (     750 calls)
                                        0.21s GPU  (     750 calls)

     Called by *cgdiagg:
     h_psi        :  13461.64s CPU  14203.39s WALL (16130652 calls)
     s_psi        :  16892.14s CPU  17472.38s WALL (32185608 calls)

     Called by h_psi:
     h_psi:calbec :    233.27s CPU    302.36s WALL (16130652 calls)
     vloc_psi     :   4390.25s CPU   4720.10s WALL (16130652 calls)
                                     4616.29s GPU  (16130652 calls)
     add_vuspsi   :   6853.27s CPU   7177.75s WALL (16130652 calls)
     vhpsi        :   1509.59s CPU   1648.01s WALL (16130652 calls)
     hs_1psi      :  21262.11s CPU  22880.56s WALL (16054652 calls)
                                    22779.36s GPU  (16054652 calls)
     s_1psi       :   8965.02s CPU   9871.00s WALL (16054652 calls)
                                     9769.73s GPU  (16054652 calls)

     General routines
     calbec       :    715.67s CPU    869.22s WALL (48468260 calls)
     fft          :      8.10s CPU      9.23s WALL (    6273 calls)
                                        0.44s GPU  (    5771 calls)
     ffts         :      1.71s CPU      1.93s WALL (    1002 calls)
                                        0.02s GPU  (     500 calls)
     fftw         :    274.90s CPU   1760.80s WALL (33477912 calls)
                                     1552.69s GPU  (33477912 calls)
     interpolate  :     10.92s CPU     11.98s WALL (     502 calls)
     davcio       :      0.05s CPU      2.84s WALL (     322 calls)
 
     Parallel routines

     Hubbard U routines
     new_ns       :    406.16s CPU    415.93s WALL (     250 calls)
     vhpsi        :   1509.59s CPU   1648.01s WALL (16130652 calls)

     PAW routines
     PAW_pot      :     40.95s CPU     49.49s WALL (     251 calls)
     PAW_symme    :      0.04s CPU      0.39s WALL (     501 calls)
 
     PWSCF        :     10h34m CPU     11h 5m WALL

 
   This run was terminated on:   9:44:17  15Oct2025            

=------------------------------------------------------------------------------=
   JOB DONE.
=------------------------------------------------------------------------------=
